24
Lattice="2.53017074 0.0 0.0 0.0 6.83384267 0.0 0.0 0.0 8.5099505" Properties=species:S:1:pos:R:3:momenta:R:3:energies:R:1:forces:R:3 virial="0.9179031634948371 0.0 0.0 0.0 0.881053318046228 0.0 0.0 0.0 1.4601498699259126" config_type=Crystalline_RSS energy=-161.8164525776723 free_energy=-161.8164525776723 stress="-0.2266515248071596 -8.403420730125007e-17 -2.2635476714141436e-18 -8.403420730125007e-17 0.030432978864066738 1.730199251337186e-16 -2.2635476714141436e-18 1.730199251337186e-16 -0.040952978551887446" pbc="T T T"
C        1.89763000       0.63344000       2.57905000       0.24641372       1.22229270       0.63163122      -7.90281892      -0.00011625      -0.00007174       1.74107276
C        1.89763000       5.31723000       0.79557000       0.06466356      -0.22680334      -0.21380949      -6.16211849      -0.00023126      -1.88530393       2.85030094
C        0.63254000       6.20041000       7.71438000      -0.41784873      -0.49622459      -0.14868127      -6.16211565       0.00023126       1.88533767      -2.85032644
C        0.63254000       6.20041000       0.79557000       0.47859331       0.09923016      -0.29661785      -6.16211565       0.00023126       1.88533767       2.85032644
C        0.63254000       4.05036000       2.57905000       0.40122739       0.98083933       0.98167990      -7.90281482       0.00011625      -0.00017815       1.74110693
C        1.89763000       1.90031000       3.45940000       0.66370525       0.80016439      -0.08509437      -6.16213229      -0.00023126      -1.88551001      -2.84990836
C        1.89763000       0.63344000       5.93090000      -0.38835152       0.26658916      -0.39597287      -7.90281892      -0.00011625      -0.00007174      -1.74107276
C        1.89763000       1.90031000       5.05055000       0.06496267      -0.09980279       0.85317623      -6.16213229      -0.00023126      -1.88551001       2.84990836
C        0.63254000       2.78348000       3.45940000      -0.08138067       0.86590631       0.52823869      -6.16212822       0.00023126       1.88572617      -2.84992546
C        0.63254000       2.78348000       5.05055000      -0.75963364       1.07423219       0.20735565      -6.16212822       0.00023126       1.88572617       2.84992546
C        0.63254000       0.63344000       6.83402000       0.52628821      -1.23418108      -0.22127288      -7.90280367       0.00011625      -0.00007174       1.74139233
C        0.63254000       5.31723000       3.45940000      -0.70562440      -0.29717657      -0.31829762      -6.16213566       0.00023126      -1.88526659      -2.84987471
C        0.63254000       4.05036000       5.93090000       0.44927843       0.38448770      -0.10208759      -7.90281482       0.00011625      -0.00017815      -1.74110693
C        0.63254000       5.31723000       5.05055000      -0.76196778       0.80002962      -0.15497875      -6.16213566       0.00023126      -1.88526659       2.84987471
C        1.89763000       6.20041000       3.45940000       0.75052735      -0.94165933       0.00454269      -6.16213282      -0.00023126       1.88530032      -2.84990021
C        1.89763000       6.20041000       5.05055000       0.26153677      -0.40577449       0.25101215      -6.16213282      -0.00023126       1.88530032       2.84990021
C        1.89763000       4.05036000       6.83402000       0.26154552       0.17304286      -0.62756579      -7.90279957      -0.00011625      -0.00017815       1.74142650
C        0.63254000       1.90031000       7.71438000       0.62280201       0.10171233      -0.45294632      -6.16211513       0.00023126      -1.88554736      -2.85033459
C        0.63254000       0.63344000       1.67593000      -0.68660056      -1.20802302       0.47978766      -7.90280367       0.00011625      -0.00007174      -1.74139233
C        0.63254000       1.90031000       0.79557000      -0.06097823      -1.11792842       0.41232591      -6.16211513       0.00023126      -1.88554736       2.85033459
C        1.89763000       2.78348000       7.71438000      -0.04549396      -1.11161745      -0.45087903      -6.16211105      -0.00023126       1.88576351      -2.85035168
C        1.89763000       2.78348000       0.79557000      -0.85288048       0.55436189      -0.64288551      -6.16211105      -0.00023126       1.88576351       2.85035168
C        1.89763000       4.05036000       1.67593000       0.70443186      -0.25614048      -0.78788291      -7.90279957      -0.00011625      -0.00017815      -1.74142650
C        1.89763000       5.31723000       7.71438000      -0.73521607       0.07244292       0.54922216      -6.16211849      -0.00023126      -1.88530393      -2.85030094
24
Lattice="2.53017074 0.0 0.0 0.0 6.83384267 0.0 0.0 0.0 8.5099505" Properties=species:S:1:pos:R:3:momenta:R:3:energies:R:1:forces:R:3 virial="0.9179031634948371 0.0 0.0 0.0 0.881053318046228 0.0 0.0 0.0 1.4601498699259126" config_type=Crystalline_RSS energy=-161.8772703589705 free_energy=-161.8772703589705 stress="-0.12829416249087536 0.002562287656892484 -0.010744626972027035 0.002562287656892484 -0.056491444818723584 0.000912279719137397 -0.010744626972027035 0.000912279719137397 -0.028819354688206386" pbc="T T T"
C        1.87929552       0.64393221       2.64393888      -0.37139640      -0.78809611      -0.37971865      -7.77951424       0.52984049       0.80551716      -3.42838589
C        1.87454182       5.25054132       0.81816099       0.20199562       0.36095069       0.08140996      -6.13941254       1.49517364       2.09221494       0.75239263
C        0.64797574       6.16840392       7.75517230      -0.36353608      -0.91846123       0.09955770      -6.26060809      -1.16447001       1.78217301      -2.68750801
C        0.63522253       6.18795620       0.84691048       0.60769007      -0.44973949      -0.00308267      -6.21305558      -1.37810576       0.31354855       1.01288503
C        0.62736693       4.05740614       2.60665431       0.13724729      -0.19845705      -0.95637625      -7.85106517      -0.97391245       0.20922603      -3.46893698
C        1.87940231       1.90367539       3.45378512      -0.15522097       0.39913124       0.03876053      -6.27509760      -0.69472877      -0.00595201      -0.93971146
C        1.91161508       0.61782389       5.88591073       0.55970753      -0.37526285       0.82081259      -7.80028976       0.72273914       1.05401015       2.36071717
C        1.92302145       1.86416452       5.07291066      -0.02626980      -0.21110579      -0.28933637      -6.19192662      -1.61557805       1.97083413       1.26419547
C        0.60186181       2.85062590       3.41275338      -0.03393868      -1.49710328       0.84485811      -6.23169702       1.28812142      -1.82811354       0.54720967
C        0.62982829       2.85063697       5.06677538      -0.10719343      -0.84461793      -0.79505376      -6.09115949       1.86549116      -1.11421613       0.49471135
C        0.64517623       0.59799001       6.88894136      -0.11506317       0.94304102      -0.75056228      -7.77271692      -0.33040140       0.00789543      -1.94330112
C        0.61565474       5.28950078       3.39524136      -0.40353619       0.68208855       0.35765567      -6.19507008       0.66703764       1.70581410       0.34318394
C        0.66650122       4.10614209       5.89539478       0.21117223      -0.49020853       0.18075008      -7.86452178      -1.75232679      -1.71258469       1.63972895
C        0.63644180       5.33085437       5.05536780      -0.25052180       0.78116940      -0.49871931      -6.24379951       1.80829525       0.49784045       0.39925089
C        1.88523774       6.25611219       3.43551394      -0.12773510       0.05770155      -0.01946501      -6.19043923      -0.44048019      -1.43493553      -0.41945387
C        1.92796339       6.27489307       5.03558652       0.36922605      -0.46117863      -0.15115233      -6.21397255      -1.56987196      -2.75625515       1.36345996
C        1.91771785       4.04003078       6.86704079       0.27599174       0.15586714      -0.28097849      -7.84713792      -0.70709913       1.95620282      -1.61639926
C        0.61874907       1.85477952       7.69377976       0.49233289       1.33445361       0.03172216      -6.22953157       0.29590786       0.10862028      -0.33397085
C        0.62916479       0.61875392       1.64170291       0.00459485       0.89425636       0.65871541      -7.82269768       0.45001881      -0.71121851       2.66370161
C        0.65403604       1.82462583       0.81316470       0.02515210       0.91330809       0.30555191      -6.16993625      -1.60589638       2.67700877       0.61842579
C        1.88313803       2.80425576       7.68945480       0.15251012      -0.68552163       0.39906063      -6.28086405       0.78342790      -1.08896772      -0.91476252
C        1.89129454       2.80786349       0.81984646      -0.69265008      -0.19015395      -0.26322947      -6.18739662       1.09858711      -1.49885601      -0.11033642
C        1.88753354       4.04391036       1.61360564       0.18239053       0.14928394       0.71817515      -7.81379992      -0.29141900      -0.99414300       3.43360855
C        1.89329956       5.29604139       7.71178695      -0.57294932       0.43865488      -0.14935530      -6.21156016       1.51964948      -2.03566351      -1.03070464
24
Lattice="2.53017074 0.0 0.0 0.0 6.83384267 0.0 0.0 0.0 8.5099505" Properties=species:S:1:pos:R:3:momenta:R:3:energies:R:1:forces:R:3 virial="0.9179031634948371 0.0 0.0 0.0 0.881053318046228 0.0 0.0 0.0 1.4601498699259126" config_type=Crystalline_RSS energy=-162.05069798180338 free_energy=-162.05069798180338 stress="-0.13481998052110705 -0.0029044282108786016 0.01753306850989704 -0.0029044282108786016 -0.029631269906212006 0.003668063238947171 0.01753306850989704 0.003668063238947171 -0.02801570326986675" pbc="T T T"
C        1.92860743       0.63034459       2.59628899       0.03984837      -0.01816794       0.84844234      -7.91055095      -0.39083273      -1.46914005       0.03836265
C        1.86519336       5.31662635       0.82385604       0.52965780      -0.04055521       0.30188369      -6.13485195       2.06938691       1.20750206       0.25253890
C        0.65938567       6.28689267       7.69434706      -0.16521919       1.24843236      -0.59264161      -6.16102268      -1.82266420      -1.44799356      -0.87169752
C        0.62436137       6.31316224       0.79365434      -0.00479380       0.62853909       0.54893943      -6.10877268      -0.90290313      -4.20644506       1.54047675
C        0.64670524       4.00169445       2.58445776       0.30900927       0.21862317       0.83194533      -7.94964168       0.02782221       1.93123907       0.46713266
C        1.93513355       1.82327593       3.46308663      -0.13403170      -0.22223356      -0.37915846      -6.14534979      -1.21717849       1.90259219      -1.48061303
C        1.87671585       0.63736647       5.92630992      -0.17005745       1.05175424      -1.19096489      -7.92942551       0.34070710      -0.06625071       1.15041784
C        1.86882283       1.84701452       5.08816118      -0.44059954       0.04367301       0.10893614      -6.19954665      -0.60206240       0.54395039       0.38025184
C        0.64476407       2.76832864       3.43614690       0.26296106       0.28950661      -0.37944134      -6.23234114       1.07783434      -0.31791084      -1.15570389
C        0.59051939       2.77706708       5.06249071       0.20972005       0.36506003      -0.40761137      -6.24020002       1.56611961      -0.30287867       1.13656069
C        0.63283654       0.68028332       6.86985365       0.26395394      -0.08797522       1.04567696      -7.87032997      -0.08619431      -0.70274562      -1.05494453
C        0.65524137       5.26909801       3.45490986       0.04653208      -0.39085963      -0.29892166      -6.17635761       0.43766474      -0.54399993      -1.39632237
C        0.63521369       4.01444206       5.89097732      -0.26712287       0.38700436      -0.47480061      -7.88074816      -1.28492296       0.42486987       1.54802950
C        0.59693990       5.25002539       5.08334958       0.37714204      -1.18351949       0.70638967      -6.15135717       0.95900775       1.40355088       0.41503826
C        1.93584261       6.19873980       3.46345686      -0.03522302       0.03400579      -0.42404585      -6.20755367      -0.81287590       0.31148473      -1.87099151
C        1.86368369       6.21420732       5.09957716      -0.03035097      -0.52696678       0.03091968      -6.21020836       0.06106700      -0.51238959       1.03742837
C        1.90558518       4.05027938       6.83950055       0.10984974      -0.70396240       0.93275547      -7.91542700      -1.42857896      -0.40580167      -1.15052137
C        0.62387007       1.90939172       7.72202336       0.06397620      -0.89749975      -0.78972225      -6.23816130      -1.38771148      -0.42717174      -2.89218021
C        0.63894121       0.64560961       1.65995716      -0.13033094       0.25486751      -0.50947173      -7.91460683       0.85534682       1.34638303       0.18117670
C        0.65260589       1.87056972       0.78881379      -0.39282926      -0.50580128       0.73378296      -6.09840833      -0.56772829       1.79182981       3.02788392
C        1.85692602       2.81690803       7.68622480       0.34773555       0.93882718       0.04258145      -6.20255478       2.35815749       0.80414619      -1.46622140
C        1.91376617       2.84812606       0.76887433      -0.09926426       0.12632172       1.02154879      -6.03775138       0.37948550      -1.59910933       2.82485144
C        1.91564544       4.06673130       1.66422796      -0.36049144      -0.50789892      -1.17499126      -7.94510767      -1.20616891      -0.67431664      -0.56943414
C        1.89473347       5.30473533       7.65885409      -0.33007165      -0.50117492      -0.53203088      -6.19042269       1.57722228       1.00860517      -0.09151955
24
Lattice="2.53017074 0.0 0.0 0.0 6.83384267 0.0 0.0 0.0 8.5099505" Properties=species:S:1:pos:R:3:momenta:R:3:energies:R:1:forces:R:3 virial="0.9179031634948371 0.0 0.0 0.0 0.881053318046228 0.0 0.0 0.0 1.4601498699259126" config_type=Crystalline_RSS energy=-162.16099796267835 free_energy=-162.16099796267835 stress="-0.19494593539285687 -0.0013723953767366933 -0.014942428997670919 -0.0013723953767366933 0.010136289009991438 -0.01261688092299957 -0.014942428997670919 -0.01261688092299957 -0.019446783313409988" pbc="T T T"
C        1.88678236       0.64252187       2.58834944       0.00930697       0.01495385      -0.51283394      -7.87617479       0.63468769      -1.25364170       1.16869338
C        1.86650906       5.28874883       0.78996966       0.61564440      -0.83880349       0.14015306      -6.20227128       0.43347401      -1.10212344       1.51705510
C        0.64986964       6.16594353       7.66625810      -0.35461689      -0.22753037       0.55371974      -6.20136728      -0.48092299       2.82197447      -1.02100685
C        0.60526623       6.16983256       0.79918838      -0.21406650      -1.13278502      -0.65693332      -6.21277944       0.51114103       1.66274427       1.62478121
C        0.62146222       4.06461688       2.55576222      -0.44766151       0.15333149      -0.53668949      -7.91944090      -0.42256325       0.02748489       1.65498200
C        1.88439293       1.88954736       3.42699532      -0.17107397      -0.60055848       0.09676418      -6.20913278      -0.69665370      -0.10528883      -2.18372060
C        1.92220561       0.65899601       5.92175124       0.10153076      -0.56897875       0.99547950      -7.85552811      -1.01350626       0.21652023      -1.08344548
C        1.92908939       1.91618528       5.01832034      -0.53316530       0.03031425       0.28963817      -6.18261366      -0.94129218      -1.27903922       3.18579253
C        0.60426534       2.81027454       3.44073028       0.45051279       1.06592674       0.46126120      -6.13360046       1.01784631       0.89019106      -2.39458685
C        0.64691466       2.81894197       5.05465287       0.21366300       0.08564695       0.13558187      -6.16722627       0.94907436       0.69239522       2.36189055
C        0.62587134       0.63808841       6.84600242      -0.21242623      -0.27770304      -1.28956075      -7.90167580       0.77073584      -0.95508717       0.17368600
C        0.61357966       5.32645697       3.43856380       0.44877293       0.69999273       0.66051123      -6.17489638       0.14607256      -1.26684502      -1.31852547
C        0.65488888       4.04649945       5.96944489      -0.02915439      -0.20349948       0.86717805      -7.92465376      -0.35941775       0.39586314      -2.33415624
C        0.64060719       5.32304095       5.10180279       0.41364070       0.92197598       0.09920891      -6.13100749       0.31643805      -1.04515792       1.47606215
C        1.87802389       6.23131731       3.50054581      -0.17332552      -0.05507971      -0.05102617      -6.16243546       0.14696077       0.74787993      -3.42166506
C        1.90841087       6.24287658       5.07380258      -0.29022536       0.67690221      -0.19715620      -6.19051198       0.05282682       0.24477002       2.46510696
C        1.92230374       4.03265338       6.86457216      -0.85630700       1.02405490      -1.16209402      -7.95584697      -0.93447974       0.35374431       0.18503791
C        0.59269232       1.85435319       7.72114658       0.01285201      -0.66127096       0.05016281      -6.16210540       0.99699706       0.99666638      -1.99938912
C        0.64333442       0.59587304       1.67139786       0.41852821      -0.26622080       0.16182930      -7.88622895      -0.99066320       1.34042865      -0.91875052
C        0.66265188       1.89011285       0.81268834      -0.81029473       0.26956313      -0.62087899      -6.17640397      -0.13943494      -2.05719836       1.93493641
C        1.87258577       2.79752352       7.70574332       0.69697129       0.34640819      -0.32960702      -6.17144489       0.38541591      -0.41830345      -0.97219786
C        1.92811435       2.79644887       0.81841382       0.35775091      -0.28462107      -0.23777517      -6.22790808      -0.91092828       0.41546713       1.24525159
C        1.88620127       4.04649803       1.64470894       0.11384323       0.85901638       1.28532229      -7.92973325       0.38764179       0.29208540      -0.00830659
C        1.91601698       5.29356860       7.68858882       0.23930018      -1.03103561      -0.20225522      -6.20601061       0.14055011      -1.61553000      -1.33752515
24
Lattice="2.53017074 0.0 0.0 0.0 6.83384267 0.0 0.0 0.0 8.5099505" Properties=species:S:1:pos:R:3:momenta:R:3:energies:R:1:forces:R:3 virial="0.9179031634948371 0.0 0.0 0.0 0.881053318046228 0.0 0.0 0.0 1.4601498699259126" config_type=Crystalline_RSS energy=-162.02652406835904 free_energy=-162.02652406835904 stress="-0.15231421730606454 -0.0020651112906210634 0.00453077774569231 -0.0020651112906210634 -0.05317850530674536 -0.00039030474206668594 0.00453077774569231 -0.00039030474206668594 -0.0017570710346318066" pbc="T T T"
C        1.91335571       0.59967013       2.59222067       0.33087273       0.97300022       0.20621232      -7.79357492      -1.27165913       2.35223573      -3.67121543
C        1.85862523       5.30667375       0.87788324       0.19325232       1.22938075       0.63901846      -6.20782467       0.07035423      -1.16266703      -0.99179649
C        0.66916014       6.22293575       7.73455843      -0.15215264       0.04858964      -0.12185321      -6.25781901       0.47426211      -1.32587056      -1.69620529
C        0.58660993       6.18136357       0.82642515      -0.02251798       0.93859128       0.17624324      -6.26224043       1.22327665       1.88897441       0.11724050
C        0.62326476       4.07896520       2.64371652      -0.13868618       0.35914086      -0.28880274      -7.77216893       0.34666281      -1.54633259      -3.46588022
C        1.89428538       1.88674020       3.38196452      -0.52561762      -0.36627991       0.16065523      -6.19227476       0.67176175      -0.43968823       1.27092604
C        1.89697002       0.61883982       5.88451899      -0.32906340      -0.28414000      -0.94442110      -7.79027127      -0.17224002       0.69072643       3.19441954
C        1.90372492       1.89217661       5.08988654       0.34829680      -0.33739809      -0.61436375      -6.24485638       0.54852107      -0.22585489      -0.43619650
C        0.63198117       2.83023799       3.43313133       0.25819127      -0.56607796      -0.18419598      -6.22227881      -0.41462581      -1.13654204       0.21561189
C        0.65214752       2.81606309       5.09213274       0.48581016      -0.57709377       0.67290851      -6.27572253      -1.15485109       0.15731295      -0.63419393
C        0.64713860       0.59777349       6.89511448      -0.15595679       0.48775047       0.09695718      -7.75970363      -0.84914929       1.12232659      -2.37532573
C        0.64013989       5.30328107       3.41867549       0.40662187      -0.65642599      -0.77927609      -6.27363367      -1.18408009       0.87172603       0.48833480
C        0.62573407       4.08036646       5.87942715      -0.85010037       0.49298544       0.43393572      -7.79156091       1.11575671      -0.67160142       2.92785459
C        0.63078128       5.31688616       5.05610951       0.55957732      -0.35301837       0.10680703      -6.29376316      -1.39764533      -0.17118709       0.31250668
C        1.89219238       6.21879127       3.37914298      -0.83266559      -0.16486963       0.33744171      -6.24176152       1.28363169      -0.48417829       1.61833784
C        1.87025160       6.23107885       5.07240245       0.33783204      -0.66552215       0.14030500      -6.21133255       1.78606567      -0.55176015      -0.76978674
C        1.90688676       4.06783968       6.87849648       0.23707211      -0.57083410       0.35432286      -7.83131318      -0.09720975       0.35877921      -2.46707576
C        0.60609779       1.83581613       7.70197586      -0.34359149      -0.23035107      -0.71519318      -6.15613301       1.06392148       2.05491464      -0.93982779
C        0.63165671       0.62221356       1.59507537      -0.25457136      -0.11064613       0.73816593      -7.70974930      -0.06935476      -0.71764103       3.73910544
C        0.64596786       1.86227738       0.80133617      -0.03900899       0.50273463       0.05244578      -6.31089064       0.42913757       0.20552386       0.59659459
C        1.87706540       2.82285877       7.69470897       0.52783234      -0.02464503       0.47240803      -6.16199204       0.24720403      -1.60134945      -0.63726511
C        1.92482007       2.78443876       0.83685839       0.31013771      -0.91306117      -0.65542140      -6.28446069      -1.48353938       1.02284233       0.28315568
C        1.88262848       4.05088397       1.66150782      -0.57223562      -0.69243744      -0.23076959      -7.81340749       0.54468545      -0.31541882       2.60580265
C        1.95055432       5.31274833       7.69213078       0.22067137       1.48062751      -0.05352998      -6.16779055      -1.71088658      -0.37527057       0.71487873
24
Lattice="2.53017074 0.0 0.0 0.0 6.83384267 0.0 0.0 0.0 8.5099505" Properties=species:S:1:pos:R:3:momenta:R:3:energies:R:1:forces:R:3 virial="0.9179031634948371 0.0 0.0 0.0 0.881053318046228 0.0 0.0 0.0 1.4601498699259126" config_type=Crystalline_RSS energy=-162.15424951276333 free_energy=-162.15424951276333 stress="-0.16941156837365817 -0.001690380805670581 0.001751461539625277 -0.001690380805670581 -0.003314633200983482 0.011767815252737221 0.001751461539625277 0.011767815252737221 -0.009585669961811843" pbc="T T T"
C        1.91501131       0.64873536       2.57784158      -0.26936105      -0.02690539       0.72796800      -7.95169721      -0.16723053      -1.01377714       1.98722086
C        1.89343910       5.32622781       0.82560178      -0.28054813      -0.58678346       0.75618942      -6.22389743      -0.51741014      -1.19139419       1.13797654
C        0.64496011       6.26930017       7.66389245       0.52517284      -0.84642715       0.39773741      -6.17227941       0.31044510      -1.23833197      -0.72565975
C        0.61225432       6.24523071       0.81250958      -0.29265931      -0.41043274       0.26753945      -6.15051069       1.45022277       0.88717437       1.49161419
C        0.63492372       3.99043388       2.55594339      -0.37489982      -0.81238032       0.67275838      -7.98002127       1.09022096       1.50007217       1.96582049
C        1.90036621       1.82402217       3.48704230       0.63908258       0.45438268      -0.57858036      -6.13968149       0.95959496       1.93955709      -2.13357816
C        1.88236744       0.64485590       5.90881002      -0.39829317       0.09646288       0.02415677      -7.91323403      -0.84619455      -2.60496881      -0.54884279
C        1.87893769       1.83708859       5.09028935       0.31605297       0.21738931       0.01948059      -6.20372111       1.05483191       1.50011252       0.34528266
C        0.65014783       2.76290863       3.43195725       0.05881066      -0.26165391       0.10110403      -6.17451037      -1.07920519      -0.12984909      -0.36156657
C        0.63415064       2.77048964       5.11558663      -0.19104506      -0.59714596      -0.51738692      -6.19526893      -1.14755905       0.35346515       0.75083952
C        0.60724533       0.63859167       6.78590311      -0.57821296       0.90548296       1.08720454      -7.97299254       0.61575723       1.89156424       1.82425957
C        0.65968419       5.26589354       3.43261761      -0.04530094       0.73844804      -0.69277752      -6.08655822      -1.10777183      -0.04192189      -1.19857594
C        0.62168551       4.02156306       5.97353619       0.30372066      -0.21632582      -1.43702582      -7.94468129      -0.50782116       1.09944802      -1.44344538
C        0.63094976       5.26797669       5.09732384       0.07947170      -0.01544484       0.45877635      -6.16709964      -1.52616895      -0.07545404       0.70717872
C        1.91162492       6.23413303       3.42567339       0.34786031       0.48976692      -0.34930450      -6.15956839       0.73855312      -1.33289162      -1.37523076
C        1.86540029       6.20306170       5.05768786      -0.27940422       0.21973608       0.45531932      -6.19341766       1.66736021       0.69841762       1.30758219
C        1.85316046       4.07641111       6.87615454      -0.62051533      -0.14948618       0.15492032      -7.87032598       2.70801617      -0.85880382       0.14740859
C        0.59611040       1.93019816       7.63296485       0.24761678       0.54609822       1.09687772      -6.11412130       0.90567139      -2.06437732      -0.17654146
C        0.65733442       0.67198613       1.70319169       0.02732455       0.19983959      -1.81538489      -7.96575037      -0.89402507      -0.82057798      -2.68484561
C        0.66260249       1.90191217       0.81132570      -0.16070186      -0.60106432      -0.38738224      -6.12044823       0.43581223       0.11426173       1.13614327
C        1.87238554       2.83986788       7.72556392      -0.15785532      -0.00981024      -0.83359544      -6.16351761      -0.83224212      -0.10791129      -3.01580303
C        1.93825185       2.81806693       0.76752549       0.55773156       0.52211763       1.04127894      -6.17587652      -0.97926729      -0.00066924       3.02879392
C        1.91071212       4.02990295       1.66949932       0.13357865       0.70214436       0.04865348      -7.92117978      -0.15215781       0.75796351      -1.80344142
C        1.92833434       5.32206210       7.69095818       0.41237388      -0.55800833      -0.69852703      -6.19389005      -2.17943237       0.73889197      -0.36258966
24
Lattice="2.53017074 0.0 0.0 0.0 6.83384267 0.0 0.0 0.0 8.5099505" Properties=species:S:1:pos:R:3:momenta:R:3:energies:R:1:forces:R:3 virial="0.9179031634948371 0.0 0.0 0.0 0.881053318046228 0.0 0.0 0.0 1.4601498699259126" config_type=Crystalline_RSS energy=-162.4464111570104 free_energy=-162.4464111570104 stress="-0.15015397655367832 -0.0010449212036921047 -0.010375378866463928 -0.0010449212036921047 -0.027527039497711077 -0.003786856445135909 -0.010375378866463928 -0.003786856445135909 0.009053380262427928" pbc="T T T"
C        1.87618546       0.64001406       2.56413100      -0.14993593       0.27845003      -0.49719488      -7.95248233       0.13918707       0.84727506      -0.45541180
C        1.88128483       5.25397998       0.80539679      -0.45518871       0.14868929      -1.15179968      -6.17246806      -0.74738024       0.81125533       0.67622210
C        0.65033074       6.19516109       7.65974194       0.59866913       0.08032432      -0.38371205      -6.19377283       0.72135849       0.49912011       0.16069060
C        0.60910616       6.20206408       0.81004047       0.33304802      -0.13501065      -0.19801227      -6.24153265       0.73541979      -1.05578728       0.19063981
C        0.62734041       4.06834508       2.59169989       0.17913239       0.64919158      -1.33832205      -7.89729354      -1.24301468      -1.08372864       0.23624141
C        1.86384540       1.93138538       3.38391669       0.49800061       0.16641223       1.11517244      -6.17635471       0.44635289      -1.73579777       0.68517444
C        1.89852553       0.65731726       5.97582652      -0.45431081       0.68929736       0.25577049      -8.00237289       1.26658138       0.31457774      -1.13431700
C        1.92312610       1.91132447       5.13248290       0.42468692      -0.45558343      -0.23185444      -6.08719853      -0.10227645       0.25783384      -0.96523106