125
Lattice="9.863761 0.0 0.0 0.0 9.863761 0.0 0.0 0.0 9.863761" Properties=species:S:1:pos:R:3:momenta:R:3:energies:R:1:forces:R:3 virial="32.021587278102515 1.3076180739033294 -49.22579916792888 1.3076180739033294 -3.3930683909570147 9.746574996632223 -49.22579916792888 9.746574996632223 40.10913663095583" config_type=Amorphous_Bulk energy=-753.0758363240317 free_energy=-753.0758363240317 stress="-0.20069992623285574 0.035796708323328964 0.040699199539166564 0.035796708323328964 -0.21861641745051447 -0.010388030746815739 0.040699199539166564 -0.010388030746815739 -0.2884320788102197" pbc="T T T"
C        2.20903000       1.39310000       3.14876000      -0.67077787       0.37005821      -0.65302770      -6.55130323       0.54000701       3.41663889      -5.63807565
C        0.58885000       4.45220000       6.64136000      -0.00304293      -0.13607693       0.25810878      -5.72710302       3.67501926       9.72584153      -1.80852260
C        1.86665000       5.10017000       9.07746000      -0.75825261      -0.29529876       0.48833011      -6.91984339       5.04652920      -0.81492649       0.02629789
C        9.38587000       9.42193000       0.37917000      -0.42750423       0.11841451       0.08696907      -7.52461758      -0.62556019      -3.37528804       2.94643627
C        7.95917000       7.05913000       7.22031000       0.09140886      -1.24185093      -0.48715200      -4.58330918      -7.35973863      15.74872350       1.01009885
C        0.35139000       3.90228000       0.72488000       0.03098707       0.10058226      -0.16051253      -6.33251143       1.80983011      -1.80522443      -1.30014279
C        6.60391000       9.01279000       2.13964000      -0.29680712      -0.12356688      -0.31536049      -7.10606020       4.48990663       2.66822886      -1.14987729
C        0.62848000       9.08018000       2.87728000       0.09145626       0.23144713      -0.20151518      -6.19112940      -4.44602535       3.23326550       6.74699834
C        3.09560000       4.14510000       3.78523000      -0.94259060      -0.18302788      -0.20147464      -6.90837956      12.26161529       0.67759154       3.21290101
C        5.46677000       4.57545000       0.81969000       0.15658996       0.24333596       0.56166061      -6.64455969      -0.08859091      -0.65225890      -2.46310042
C        6.28407000       4.88877000       8.13497000       1.05225261       0.66554021       0.08455101      -7.43146178      -1.97785156      -1.29400886       2.21460689
C        8.54228000       8.34727000       6.79625000      -0.94587898       0.26183362      -0.38995902      -5.07779077       8.29979253      -7.25283462       0.63658875
C        8.70831000       6.41908000       3.94525000       0.07391266      -0.26732851       0.29061361      -6.68860978      -1.69518374      -1.03102582       0.23583469
C        8.52122000       1.79448000       9.85791000      -0.20951514      -0.43171029      -0.73798894      -4.36733829       2.39807203      -9.00514410       6.12848876
C        3.26116000       8.42681000       0.23594000       0.59584861      -0.40881631      -0.35900083      -7.24112561      -3.17965106       3.14515572       5.51072781
C        9.82923000       1.39638000       2.03296000      -0.25131744       0.46411410       0.81379911      -5.83235430      -0.06839538      -2.59335544      -0.62850145
C        4.11380000       4.04479000       2.65210000      -0.20780438       0.24113132       0.06283396      -6.55410946      -3.75337222      -3.38175385       3.68296643
C        8.56930000       5.82276000       8.42998000      -0.43438457       0.87336866      -0.72371045      -5.32002510       1.17105930      -5.99558044      10.57615921
C        6.36966000       2.36768000       1.73608000       0.58499443       0.60210905      -0.27437458      -5.36741784      -9.48420342       2.16641454     -11.57873983
C        3.64461000       4.11547000       5.16034000      -0.43281583       0.20408832       0.24191357      -6.13861606      -6.37561727       1.10170639       1.38000967
C        3.02546000       6.93959000       4.74523000       0.43939785       0.43515352      -0.15348164      -6.39786236       4.47828211      -2.42535870       4.81666334
C        8.82587000       3.82464000       1.22613000      -0.09985262      -0.68351008      -0.22935940      -7.41335603       0.74934296      -1.15945860      -2.08254756
C        4.89017000       4.60742000       5.62565000      -0.05566053      -0.22381109       0.32381727      -5.78740478       3.06902325      -4.75579250      -1.78451251
C        5.29791000       7.17905000       3.62968000      -0.97021813       0.85126520      -0.02381750      -5.89335731       2.88896992      -0.41659160      -0.52780897
C        5.04520000       9.33507000       6.85220000       0.19926906       0.03887887      -1.30058152      -2.70897238      -9.89995390       2.30028211       5.43177291
C        5.66415000       0.80657000       0.09453000       0.90820484      -0.00330313      -0.83307066      -2.05800209      -1.31550709       2.25198505      -6.49677153
C        1.37726000       2.76519000       0.83393000      -0.39242320       0.10322291      -0.30699227      -7.85200436       0.84070008       2.18106171       0.66003563
C        1.47618000       1.17878000       4.23345000       0.32245266       0.14320809       0.35528481      -5.76009238      -1.14513107      -7.05808627       5.81713298
C        1.99458000       9.64058000       6.62850000       0.28009589      -0.55134927       0.64557335      -6.92445778       0.98671027       0.21936852      -0.13786772
C        5.07615000       5.09295000       9.30767000       0.24194149       0.16001040      -0.35666762      -7.23237041       2.21764013      -0.29104195      -2.37115624
C        8.74942000       4.64828000       2.40868000       0.47585394       0.21592564      -0.06333127      -6.10996661      -0.04003348      -5.37541741       4.65452326
C        3.96063000       1.77304000       1.72565000      -0.21975792       0.36211568      -0.43487022      -6.47152153       7.07361926      -2.70417577       1.27356550
C        8.80968000       2.22033000       1.34242000       0.72031206      -0.56897164      -0.12855379      -7.01675293      -0.93281455       3.16256962       2.27673104
C        1.97204000       6.55827000       5.67177000       0.13450865       0.77448544       0.29850884      -6.33026311       2.85908664      -3.40316757      -0.43854308
C        4.81699000       1.84809000       4.63819000      -0.21925928      -0.38582939      -0.50656322      -4.37479757      -1.20814573       3.88641373       2.42512182
C        5.94733000       5.95570000       7.12974000       1.20231986       0.01326921      -0.22525708      -6.21197411       2.98803003       6.70512308       2.65625289
C        1.73156000       8.25881000       2.64696000       0.14278443      -0.76469634      -0.02729825      -4.64323804       0.67671852       0.03009736      -0.50238625
C        6.94298000       2.31975000       3.06504000       0.55865570      -0.16933691       0.25103702      -2.59123420      -1.64140055       2.68598936      10.04942660
C        2.58894000       3.55843000       0.89763000       0.18505153       0.03973093      -0.30144618      -6.51346584       1.85195765      -3.97760054      -1.89517014
C        7.28548000       9.69352000       8.74297000       0.28744843       0.63130127      -0.50434854      -6.72463411      -0.73866812       0.42376281       0.39861244
C        4.94111000       0.61728000       7.56464000      -0.92761202      -0.20679314       0.20747241      -6.70138663      -0.70188285       7.46177697       4.25455875
C        2.80472000       3.76057000       6.41319000      -0.33463116       0.56131908       1.25553819      -6.73414522      -0.42346497       1.54360015      -5.19665188
C        9.53907000       8.03178000       5.71948000      -0.09705141      -0.55116103      -0.65163089      -4.93290730     -12.61558314       1.91957203      -1.12984729
C        4.63109000       7.04433000       5.10755000      -0.55375801      -1.06813492      -0.64953359      -7.80561494      -2.02946630      -1.31837034       0.50912660
C        5.72128000       2.46545000       5.56884000      -0.60231172       0.33510416      -0.50794283      -6.64306213       1.08072942       0.24415005       2.71668102
C        2.54836000       7.73354000       1.50370000      -0.26999701      -0.49574108      -0.06963514      -4.50913910      -2.12689051       9.95253791     -43.08257443
C        2.35429000       9.24093000       9.20386000      -0.60511355       0.48788482      -0.08208462      -4.86358423       9.38876635      -7.16726306      -4.89854891
C        7.19317000       8.23923000       9.54866000       0.54692865      -0.09027262      -0.56635190      -6.47276991      -4.58647269       5.37863398       2.16507593
C        6.13592000       7.44645000       8.89962000       0.48760664       0.19794391      -0.14757915      -5.71285066       1.79235897      -1.29365683      -5.54698423
C        5.21770000       3.48644000       6.59703000      -0.19983705      -0.03534081       0.74934049      -7.09158520       0.36346174      -3.74107293      -3.40715714
C        4.04943000       4.03567000       8.70636000      -1.32683518      -0.60112030      -0.44579261      -5.96319390      -2.81897558      -0.32048172       3.31346815
C        8.28478000       5.93809000       2.62668000       0.11659120       0.07976843       0.44926284      -6.43344670      -3.58951564       6.40632653      -3.64916651
C        1.79028000       4.14045000       3.53805000      -1.32640741      -0.34819113      -0.83373812      -4.53176892      -7.70423437       5.30231254      -5.99632994
C        4.68784000       0.68270000       3.86517000      -0.52632942      -0.48571703      -0.34759685      -6.50206713      -2.97229416       3.78486772       0.73709933
C        7.79499000       2.71239000       9.09539000      -0.15684992       0.45009750      -0.03955117      -3.67006414      -7.10836608       8.95661860      -0.95634473
C        8.65823000       7.71487000       4.54266000      -0.45907668      -1.03448840       0.28791260      -6.47312229       1.09790821       2.17678876       0.09129036
C        1.74017000       0.69263000       9.47236000       0.29881939      -0.67274090       0.32153858      -2.31522796       7.08252484      13.67096272       1.73821701
C        2.15962000       5.97996000       7.89103000      -0.66757003      -0.08592071       0.06130963      -6.53561498      -5.00435328      -5.16449871       2.24660036
C        7.48404000       8.74094000       4.44808000       0.63738305       1.14321753       1.07603760      -6.88501069      -2.47337076      -5.22899237       3.17243038
C        0.66497000       4.95786000       9.72575000       0.41177329       0.27964547       0.57461944      -7.07348582      -7.22822713       8.20805940      -0.19125582
C        7.36901000       9.00542000       6.05505000      -0.13103688      -0.31546854       0.49422592      -4.69217359      -8.36320590      -0.28157967      -6.01223669
C        7.59504000       3.13046000       3.97850000      -0.00948573       0.54979673       0.68243514      -6.12325794      -0.05582962       2.55667399       3.69195664
C        1.35517000       1.76937000       2.04276000       0.59178690       0.46341783       0.73460095      -6.28851723      -3.71465640       2.20658222      -3.94461897
C        0.64363000       9.74809000       4.27706000      -0.38810882      -0.00129993      -0.31913924      -7.53246420       1.89556525       1.38265728      -1.73380024
C        9.37081000       1.67245000       5.28240000      -0.17297002      -0.44120594       1.01491237      -6.11960902      -2.77348530       2.58414413      -0.09927335
C        7.96482000       0.04872000       3.93610000      -0.12071008      -0.36538034      -0.13625391      -5.86646131       4.30940570       4.32235756      -3.56026194
C        1.00021000       7.55612000       5.76019000      -0.19902260       0.37033758       0.47269543      -2.86183388       4.86481270      -6.36959761       3.38378275
C        0.62419000       3.48969000       4.01512000       0.57366873      -0.06025350      -0.61008263      -6.32980720      -1.31528608      -6.15135834       4.89840886
C        9.00465000       2.04919000       8.38818000       0.41122008       0.10405204       0.51510094      -4.74613367       7.69217990      -0.56697262      -4.75162727
C        0.88214000       2.23875000       5.00030000       0.51729573       0.18934855       0.17101137      -7.63876757      -0.05897969       7.59708088      -0.65225723
C        6.40730000       3.49360000       0.81266000      -1.13853436       0.02842204       0.95652330      -6.30246920       1.08037149       5.76782130       0.87243483
C        3.25919000       6.80279000       2.34419000      -1.24141104      -0.31600081      -0.25820538      -4.27754545       7.94892851      -6.19637609      -3.33589580
C        6.13791000       8.46249000       3.50428000       0.52273508      -0.46624616       0.49892484      -7.13596833       1.97761873       1.02731917       0.19745735
C        2.60378000       1.27255000       6.59995000      -0.85418544      -0.41507689      -0.17114201      -6.52550497      -2.80005302      -2.70062665      -0.46501809
C        9.34524000       5.16471000       6.05404000       0.17465821       0.09841814       0.08774233      -6.85955419      -0.40667935      -3.25218720       1.69181501
C        3.63450000       3.08264000       1.73136000      -0.28719588       0.23056717      -0.01172685      -6.67223646      -3.57446204       5.68831842      -4.07054688
C        8.96160000       6.89079000       0.55899000       0.37694832       0.75599074       0.78755854      -5.83110133       5.05389466       5.17322558       0.73997155
C        1.93236000       5.20313000       6.58788000       0.37458546       0.86777095       0.09697899      -7.19226100       1.22589187       3.78719195      -0.76545228
C        1.16035000       9.01043000       5.53036000       0.05858907       0.35834985       0.94621501      -5.48912419       2.24247390       6.61483957      -1.22433193
C        4.79290000       6.52634000       2.31060000       0.39400486      -0.70207888      -0.52989589      -8.13630541      -5.00946444       0.14349073      -0.61284126
C        4.89734000       6.70754000       9.47958000       0.68690451      -0.31033505       0.94175328      -7.40495652       1.95124833      -1.28120365      -0.23884082
C        6.49064000       7.22761000       7.50309000      -0.01056729       0.10649279      -1.09097381      -7.68230679      -3.02128485       0.15956939      -2.49767510
C        7.11622000       2.65853000       5.27274000       0.56938693       0.46711073       0.24333643      -6.68123407       2.25595771       3.35231168      -4.00278781
C        1.39384000       2.03993000       9.36882000       0.02957528      -0.45940787       0.49129205      -6.35908487       1.69246566       1.22699751       0.27424416
C        5.21475000       9.31957000       4.29628000      -0.39440450      -0.35375658      -0.16170237      -5.92555373       1.43350921      -4.69905626       0.27596312
C        8.30993000       0.41130000       9.71003000      -0.26917099      -0.13030474      -0.05064047      -5.65477853       1.02583611      -1.19083623      -0.07595059
C        3.60789000       7.42937000       9.15462000       0.83773984       0.32259965      -0.14372258      -5.75269747       2.62283067      -2.81276692       2.62169224
C        2.65415000       7.26983000       3.48103000       0.63200139       0.37284615       0.07504745      -4.43542359      -3.30303753      -5.53964853      35.59236405
C        6.85875000       2.14721000       8.07251000       0.07472825       0.34825659      -0.11462384      -6.50915471      -1.34899198       2.14558450       1.74986238
C        8.01507000       1.44587000       7.28144000      -0.06393974       0.16799999      -0.25156476      -6.70718795       1.00039104       1.51589291      -2.14850593
C        5.60922000       9.71389000       1.16899000      -0.06075167       0.35426548       0.61570061      -4.70770038      -0.94695066      -9.12349669       7.49649887
C        8.62725000       8.15043000       9.85317000       0.23615477       0.15880771       0.20939041      -5.49974971       2.91489398      -0.10188076       0.29489969
C        9.20211000       0.56000000       4.50544000       0.52520385       0.37477880       0.67102843      -6.25541870       1.55224688      -5.24354174      -0.77662617
C        4.86622000       5.03519000       2.01946000       0.17883976       0.19832279      -0.13198944      -6.73639360       2.85232837       2.78213648       0.43988027
C        9.43331000       9.77663000       1.99106000      -0.63304205       0.19916494       0.88780557      -7.22936567       1.21274037      -1.71781198      -4.38777769
C        8.64262000       5.88884000       6.98887000      -0.41417792       0.43848936      -1.23207149      -2.72903704       2.11050477      -7.01849982      -5.38165188
C        3.59360000       1.10696000       2.88694000      -0.30622186      -0.22120361      -0.75583288      -6.43013960      -0.91807777      -5.10727436      -0.10161662
C        7.65377000       1.58646000       2.07483000       0.95157767       0.81913369      -0.47328751      -4.43545509      10.17696794      -7.19539446      -5.65738299
C        8.17232000       2.16048000       5.97101000       0.55499599       0.36652052       0.26270303      -6.54942031       4.79714378      -4.77653631       6.32029688
C        5.31671000       1.44750000       1.32373000       0.46463701       0.58847645       0.04687188      -5.33460027      -3.38566632       7.91730714       7.89952055
C        5.21182000       5.89040000       5.94509000       0.00439236      -0.21214299      -0.10388626      -6.78485675      -3.25408467      -1.44743354      -2.61370506
C        6.09668000       8.44025000       6.60182000      -0.34250671      -0.12068515       0.49817143      -4.36361338      15.90679560      -7.70774953       3.07404418
C        7.47656000       5.10336000       9.00391000      -0.21436288       1.34445543       0.67443067      -6.13350273      -3.95873878      -0.29331697      -3.41564459
C        8.95949000       4.02492000       3.78013000      -0.14874544      -0.47318530       0.27519754      -7.74012180       1.62056942      -3.98189944      -0.39421614
C        7.61022000       3.98940000       0.01784000       0.23225386      -0.88836816      -0.20178178      -7.21614616       5.24952235      -5.42928395       3.63954393
C        3.81510000       1.59515000       7.28517000       0.54156435       0.50405511      -0.17463216      -6.55717117       0.64108014       1.78600473       1.80054881
C        6.37482000       3.51459000       7.48096000      -0.41637538      -0.74936688      -0.66608932      -5.83761461      -3.98491578       0.89970940       0.26796210
C        9.00808000       5.19475000       4.67736000       0.91008735      -0.04683091      -0.34995677      -6.49868500      -0.06081636       2.14468708      -0.66797496
C        5.98730000       0.94108000       8.63601000       0.93231085      -0.81524499      -0.63521338      -6.94357018       3.63160093      -1.40638188      -9.25035674
C        0.58138000       2.38421000       8.24396000       1.16494309      -0.09234015      -0.09467205      -6.68155407      -9.90603145       2.42532204       3.01436043
C        7.89369000       6.80280000       1.47064000      -0.65307795      -0.44044610       0.39828503      -6.11149557       1.19517635      -3.34712613       3.78006556
C        2.72431000       7.28819000       8.06256000       0.22612858       0.53916199       0.64364570      -6.09612687       4.21625039      -1.65156451      -4.59447768
C        3.90273000       3.18368000       7.34898000      -1.20905173      -0.27092500       0.86425536      -7.39135264       5.26247705       1.42463048       1.58665400
C        5.25091000       7.32476000       1.03304000      -0.22096964       0.57501861       0.22855846      -6.65349909       3.09344715      -1.24541863       2.50441841
C        5.02587000       8.48793000       5.57064000       0.11168052      -0.72911992       0.13908747      -4.72927893      -8.37400447      -0.85315798     -11.35206309
C        1.83466000       2.56621000       6.19981000       0.07536822      -0.62440007      -0.28948382      -7.15611474      -3.02977770      -3.44320462      -0.43479097
C        6.83370000       7.86645000       1.21257000      -0.20657257       0.29279934      -1.06288140      -6.61883363      -2.98736607      -3.50122258      -1.08096070
C        2.41464000       8.72719000       7.77805000      -0.17336841      -1.10520851      -0.31377082      -5.97477032      -3.19332751       2.79109698       0.76304309
C        7.96184000       9.71253000       7.32665000       0.12061062      -1.03248088      -0.22279952      -4.90712879       0.02981372       8.27910398       5.20445109
C        4.61608000       8.68865000       0.92926000       0.61988973       0.12932771       0.02246753      -5.22598273      -1.67101251      -2.15079546      -0.53451488
C        7.89271000       0.09496000       2.42150000       0.72634747      -1.02556341      -0.10403656      -7.18999199      -2.16248998       1.63038967       2.04523764
C        9.47434000       5.98715000       9.51123000      -0.25530242      -0.39045992      -0.27989107      -6.54239638       1.96371234      -2.71453448      -3.92412119
C        0.83535000       3.21400000       7.13215000      -0.39657147       0.44037164       0.42587236      -5.40188377       4.75724877      -9.37657533      -2.73224100
C        0.88704000       9.49386000       9.62792000       0.46342222       1.22181894      -0.60095520      -2.51717890     -14.07435985      -8.83882015       2.50761669
C        2.86259000       4.23600000       9.54616000      -0.61800052      -0.33742390      -0.03580118      -6.78876989       0.37641434       1.64868498      -1.99086654
125
Lattice="9.863761 0.0 0.0 0.0 9.863761 0.0 0.0 0.0 9.863761" Properties=species:S:1:pos:R:3:momenta:R:3:energies:R:1:forces:R:3 virial="32.021587278102515 1.3076180739033294 -49.22579916792888 1.3076180739033294 -3.3930683909570147 9.746574996632223 -49.22579916792888 9.746574996632223 40.10913663095583" config_type=Amorphous_Bulk energy=-798.6107039151289 free_energy=-798.6107039151289 stress="-0.08068546678421541 -0.019153606912874467 0.06338255350177104 -0.019153606912874467 -0.04041824475992408 0.0098669388124383 0.06338255350177104 0.0098669388124383 -0.06362731849748979" pbc="T T T"
C        2.19642296       1.37329215       2.91114601       2.54257039       0.49720929       1.16335927      -6.94037741       2.31604148       0.05373255      -2.31667374
C        0.67756801       4.75443181       6.71269649       0.84581424      -2.21335147      -0.91488877      -6.09825538      -5.69387797      -6.86271815       1.66353373
C        2.11274726       5.40915107       9.27619432       0.71667523      -0.94787728      -0.58905836      -7.04380687      -5.37782968       0.50497053      -0.19460128
C        9.21863900       9.25746710       0.29937967       1.70240481       0.99603391      -2.86331702      -7.32748779       4.40442776      -1.31429702      -1.59599102
C        7.73806471       7.40570398       6.92307923      -1.69556270      -0.12645103       2.39333240      -5.68348120       7.36682922      -7.19015733       5.36972234
C        0.52900973       3.91205482       0.80770529      -1.27393984       0.72100225      -1.82704510      -6.58703445       3.29194384       1.31438978      -1.37018615
C        6.73084775       9.04345419       2.31976231      -0.81341866       0.11800555      -0.20241176      -7.22288431       3.21941625      -2.45045187       0.33865272
C        0.72781503       9.11022601       2.81894341       0.66820238      -0.72177983      -0.97813170      -6.40197708       3.14123366      -4.80453690       0.23653463
C        3.02350419       4.32320402       3.64106901       1.41357567      -0.00185690      -1.00484982      -7.32116136       1.93525713       1.92449906       1.67966333
C        5.45726118       4.45442202       0.73371888      -0.17459773      -0.57742906      -1.99375084      -6.52922298       0.58544810       4.36155441       0.50589011
C        6.29354406       4.87937211       8.07640604      -0.69223461      -0.05023477      -2.22685509      -7.74803299      -0.86076862       0.71912497       0.46365263
C        8.69991985       8.59052227       7.07738697      -0.23437825       1.43260393       0.18973105      -4.88162455       1.42563095      -0.44169836      -0.25700039
C        7.98902550       6.22136667       4.19344090      -2.47009636       0.92616597      -0.68109091      -6.54217977       0.49227966       0.29000944       3.87400096
C        8.43151654       1.63489809      10.03362661      -1.45737662      -1.95410900       0.64473108      -5.08701340       0.46537981      -2.10963007       4.34080965
C        3.47940668       8.83861414       0.38013304      -0.48955321       1.82609077       1.47938567      -6.82466644      -3.53046502      -3.35240582      -0.33570026
C        9.88844289       1.24897901       1.84769687      -1.17057414      -1.18979068      -0.00477633      -5.94645856       2.21114885       1.82481430      -2.33401752
C        4.06824724       4.18024351       2.58226699       2.18818106      -0.81544329      -0.38992960      -6.45243031      -1.35057454      -3.64554870      -0.77160036
C        8.63457385       5.67379558       8.48985401      -1.40356250       1.56302407      -0.67327699      -6.57540916      -0.53205111      -3.35247471       6.41060146
C        6.33150836       2.15089416       1.61197585       1.22321630      -1.81299606      -1.73759271      -6.01414843       1.25891794       2.56265030      -0.56208120
C        3.51263419       4.17195324       4.97681297       0.00188187      -1.52756788      -0.86855775      -6.39652295       0.41603411      -0.46598461       3.76047569
C        3.03083137       6.38055051       4.52039843      -2.37899781      -2.20447164       0.53404001      -6.50258011       0.06400466       0.97730079      -5.26767884
C        9.02997871       3.69171789       1.43181841       0.03301280      -0.60298022       1.76110760      -7.76398155      -2.02641173       2.45957466      -2.72538777
C        4.91369373       4.28942046       5.38816747      -1.18674748       1.04969843      -0.78742821      -6.16252631       0.23811978       3.06631221      -0.08272028
C        5.28771021       7.05322434       3.48024340       0.47676528       1.01298462       1.50024795      -5.94022612       1.14362083      -0.35877241      -0.36093021
C        4.88153242       9.37727346       7.67166779      -0.89106190      -0.53977534      -0.75959792      -4.06985609       1.15972790      -1.06602304      -5.37623591
C        4.87269713       1.22683190      -0.24303511      -0.62429186       2.97499518       2.45961494      -3.81935963       0.90141216       0.35872714       8.67974785
C        1.69453442       2.80024312       0.74168306       0.84893417      -0.02020500      -0.91045114      -7.86452696      -6.26449621      -2.94078233      -2.96191568
C        1.56437065       1.17879679       4.10346338      -0.95130593      -0.94167646       0.27286193      -6.04623214      -0.87399924       2.63347873      -0.36609072
C        2.21867262       9.73441843       6.62351251      -2.23011562       1.53643749      -1.10763389      -7.00131797       1.18929969      -1.01905854       2.45468681
C        5.22231300       5.07463770       9.19105725      -0.42567423       0.82600919      -1.74840132      -7.50413361       1.67666625       1.21810998       0.46217138
C        8.64354614       4.49826080       2.68499394       1.65732147       1.16680974       0.03152919      -6.21761587       0.92580599      -0.50008527      -3.03961511
C        4.16533520       1.77835076       1.84468746       0.87102509       0.31555384       1.83371266      -6.09904667       4.20496896       0.14362208      -1.39147195
C        8.84448822       2.18711686       1.54330825       1.99047004      -0.73610496       1.13260836      -7.03414294      -1.47064207      -2.30078159      -1.39764105
C        1.90805825       6.36657761       5.42384091       0.95160199       0.18127084      -0.36652028      -6.70127492       2.74034098      -1.96745777       5.83615241
C        5.27738377       1.72097873       4.44141472       3.07085683      -0.22846825      -2.38471721      -4.76212108       7.55585342       2.98155384      -3.78829060
C        5.91586494       6.00454340       6.88925391       0.46628047      -1.22187499       0.85969016      -6.41226938       2.32603683       2.10766770       3.33451347
C        1.60993955       7.93445429       2.34611822      -1.25167894      -0.35082002      -1.52225913      -5.12908611      -0.82662787       0.89783116       1.25516218
C        6.74002023       2.41511446       3.32761912      -1.77134494      -1.71702822      -1.19770186      -4.13289318      -7.40737927      -3.68231982       1.64470916
C        2.91266605       3.44102927       0.65794894       0.72719781      -0.75762622       0.69872890      -6.59948774      -0.49165971      -0.41033737       2.09435482
C        7.06536343       9.77149269       8.66046182       0.55432282       1.57374039      -0.72446108      -6.57395313       0.03205093      -0.74757398       3.92039693
C        4.96209128       0.99065340       7.47566785       0.41270045      -0.13328885      -0.15469724      -5.73120557      -2.91615894      -0.06284351       3.89072852