27
Lattice="5.525534 0.0 0.0 0.0 5.525534 0.0 0.0 0.0 5.525534" Properties=species:S:1:pos:R:3:momenta:R:3:forces:R:3 virial="-3.7407310762837427 -3.9468524469113166 -39.01351991975929 -3.9468524469113166 14.354223218366675 8.740173047719423 -39.01351991975929 8.740173047719423 -12.00222374162131" config_type=Amorphous_Bulk pbc="T T T"
C        1.43997000       1.73807000       1.70668000      -0.45210038       0.35496015       0.11863857      -0.96101469      -0.45825660       1.49006534
C        1.07386000       0.67210000       3.95388000       0.13486214      -0.70682375       0.98455365       0.71847129       1.62019277      -0.96596694
C        4.08710000       0.75921000       4.39201000      -2.01061279       0.09734003       1.14568813      -0.24446675      -0.63795269      -2.08210778
C        0.02086000       3.33953000       3.84400000      -0.11320805      -0.00690782       0.73427028       0.12125081      -0.35525998       2.71750045
C        2.01693000       1.87389000       4.35456000      -0.62650938      -0.60954528      -0.13033440       0.81640828       1.78069639       2.67047358
C        3.82838000       4.72720000       1.87588000      -0.24780746      -1.44396171       0.56134093      -0.10647622       1.16545773      -0.69911140
C        1.99787000       3.10237000       2.22889000      -0.46392561       0.62110764      -0.17038351      -0.20553650       1.26067185      -0.36980733
C        2.77372000       3.82055000       1.00145000      -0.43813220       0.74332244       0.02285180      -0.24808244      -0.54654938       2.60612774
C        3.72702000       2.91771000       0.25458000       0.89514382       0.91101304      -0.34536044      -0.48854423      -0.40337920      -2.08668113
C        0.46088000       4.96466000       0.44861000       0.08541059      -1.09170320       0.77850054      -1.05681658       0.09509698       0.93544763
C        5.30966000       4.23059000       1.60652000       0.03581653       0.24612852      -0.62717682      -0.30044186       0.04127932      -0.14700773
C        3.60651000       0.58647000       1.24174000      -1.03605165      -0.09296672      -0.77757748       0.41137564       0.15614548      -1.97578216
C        4.88350000       2.74663000       1.14242000       0.59928118      -0.44485254       0.53947225       1.70354426      -1.98673010      -0.61972439
C        4.00837000       3.62848000       4.27212000      -0.06470364       0.91492670      -1.73002561       1.01599884      -1.47277617      -2.02034593
C        4.67105000       1.47141000       2.04285000       1.20178358       0.15339754      -0.19138674       0.34254226       1.17247176      -0.05529726
C        1.10319000       2.87403000       5.00284000      -0.43389770      -1.09254550       0.49351079      -2.47382140      -0.35941312      -2.49624681
C        2.92971000       2.69855000       3.42208000       0.01193997       0.76264543      -0.89634053       0.40105784      -0.90374154       0.26157758
C        0.45615000       1.05257000       2.53566000      -0.32105992      -0.06806818      -0.84803827       0.82252711       0.83134413       2.20666242
C        2.60408000       0.93956000       2.13939000      -0.21744735       0.17786613      -0.14985635      -0.66936296      -0.49623168      -1.31041002
C        3.20954000       1.43293000       5.37400000       0.89971490       1.02399018      -0.01412002       1.16947198      -0.34320825      -0.36504459
C        0.48993000       1.96802000       0.44518000       0.76670987       0.22841050      -0.56739855       0.10018853       1.42077374      -0.31023458
C        3.49205000       4.96130000       3.65510000       0.62010571      -0.31487772      -0.13477332      -0.14544605      -1.73178458       1.09365261
C        3.67098000       1.51524000       3.04987000       1.00157103      -0.41328316       0.22308441      -0.82143682       1.30644739       2.66636992
C        0.06885000       0.63622000       5.11107000      -0.11905397       0.01273531       0.50135794       0.15648991      -0.11119109      -0.08619779
C        0.85562000       4.01951000       2.80956000       0.52223025       0.30641005      -0.70816102      -0.51675016      -1.75920177       0.75459743
C        1.62881000       4.24675000       5.49058000      -0.62419885       0.47347272       1.18004219       0.94268095       0.11462346      -1.64371514
C        1.89180000       4.90839000       3.95597000       0.39413939      -0.74219080       0.00762160      -0.48381129       0.60047567      -0.16879295
27
Lattice="5.525534 0.0 0.0 0.0 5.525534 0.0 0.0 0.0 5.525534" Properties=species:S:1:pos:R:3:momenta:R:3:forces:R:3 virial="-3.7407310762837427 -3.9468524469113166 -39.01351991975929 -3.9468524469113166 14.354223218366675 8.740173047719423 -39.01351991975929 8.740173047719423 -12.00222374162131" config_type=Amorphous_Bulk pbc="T T T"
C        1.42353219       1.89523191       1.77926158      -0.62207594       1.72616606       0.72834226      -1.29914773      -0.70793837       0.70977426
C        1.11463934       0.76134105       3.99301741      -0.37154323      -0.27168129       0.78422481       0.54075480       0.87272942       1.52637720
C        4.02506403       0.63403077       4.22812048      -0.43346591       0.46521443       1.05850039      -0.94944251      -0.18855518       1.31727231
C        0.19079048       2.93326848       3.67814408       1.67411888      -0.89334501      -2.33347181      -1.69669008       4.56597376       4.41281366
C        2.10435561       1.83935845       4.54806822      -0.27327804       0.31782893      -0.32959217      -1.98862028       0.73502380      -0.93921202
C        3.87748411       4.72250649       1.79613118       0.16098755       0.56805765       0.87141735      -1.49798214       0.21901292       1.12616420
C        1.97044040       3.19919214       2.17433032       0.58730009      -0.76620620       1.01063831       2.22299790      -0.65868407       2.08552217
C        2.76295104       3.79211725       1.05140419       0.88960388       0.51294545      -0.11882701       1.64228368       0.59955031      -1.47060680
C        3.75410195       2.88252104       0.20740624       0.41760778      -0.21511397      -1.11400976      -0.93869781      -0.75125897      -1.86843383
C        0.47786721       4.99910159       0.38762838       0.86605308      -1.01937188       0.36380734      -0.04643646      -2.05362010       2.20912743
C        5.30586731       4.29218430       1.58735296       0.39427519      -0.56181686       0.70584997       0.89839137      -0.56794608      -0.19993991
C        3.59731746       0.50959464       1.20031809      -0.81194979       0.66166350       1.45345175      -0.03284693       3.27739668      -0.12952945
C        4.86991388       2.76571387       1.09180506      -0.11579625      -0.03642167      -0.17625849       2.21235704      -1.67633069       1.75880706
C        4.00068937       3.42395625       4.16794426       0.32366181      -1.11599480      -1.15691675      -0.05924737       0.91416025       0.26399693
C        4.61558771       1.54780694       2.07530703       0.75545780       0.11013408      -0.60187877      -0.27813685       0.79328668       0.38702434
C        1.06674415       2.82459800       4.96317006       0.42817217      -0.05664336       0.01861429       1.69799888       0.99325526       0.99218154
C        2.87344739       2.63861245       3.48441291       0.58428108      -0.04171600       0.41908916       1.52133715       0.07773989      -0.42474681
C        0.40249315       1.72503061       2.99437575      -0.04510925       0.35604079       0.32370358       0.71621811      -5.13025856      -5.18560791
C        2.48597407       0.90552636       2.02810614      -1.06597761       0.64534127       1.69308993       0.39528778       0.38078672       1.06925416
C        3.28116605       1.34636752       5.38353069      -1.04399252       0.53987408      -0.37417353       0.93234515      -0.39933118      -0.80037475
C        0.53779510       2.02239632       0.52638486      -0.13351350      -0.62348525      -0.84054111      -2.50110435       0.01666218      -0.66713655
C        3.50718764       4.81958568       3.64870201       0.36499364      -0.06409907      -0.23619109       0.60782468      -0.01743361      -0.99576855
C        3.54463841       1.48324966       3.05168660      -1.31182526      -0.13439888      -0.17071444      -0.47019988      -0.84100235      -1.68805671
C        0.15736463       0.65523760       5.20387183       0.28201215       0.03327983      -0.07500757       0.78126007       0.34084257      -1.56466591
C        0.91757339       4.04180936       2.89756851       0.99322119      -0.47703712      -0.15521420      -1.13269508      -1.31080580      -2.78722334
C        1.66017004       4.26069281       5.40274326      -1.38259963       0.44891526      -1.11456018      -2.02715969      -0.43219590      -0.87516737
C        1.78123388       4.91090844       3.80669791      -1.11061942      -0.10813000      -0.63337226       0.74934840       0.94893980       1.73815501
27
Lattice="5.525534 0.0 0.0 0.0 5.525534 0.0 0.0 0.0 5.525534" Properties=species:S:1:pos:R:3:momenta:R:3:forces:R:3 virial="-3.7407310762837427 -3.9468524469113166 -39.01351991975929 -3.9468524469113166 14.354223218366675 8.740173047719423 -39.01351991975929 8.740173047719423 -12.00222374162131" config_type=Amorphous_Bulk pbc="T T T"
C        1.43924582       1.81780445       1.78672641       0.04394360       1.59031141      -0.62469910      -1.83562708       0.95445907      -0.08735164
C        1.19945048       0.77213685       4.01880185       0.09425183      -0.59194587       0.11024677      -1.79509354      -0.69877523       1.29480672
C        4.10215280       0.68952216       4.23007672      -0.23880435      -1.34307625      -0.97071070      -1.54476953      -1.11126840       1.75026619
C        0.20665169       3.01071279       3.81985576      -0.21240525       0.76760333       0.73296703      -2.02378798      -0.14014760      -2.07461643
C        2.12401371       1.81885431       4.58168413       0.94466807      -0.29891785       0.85838415      -2.19036388       1.84911859      -1.95502234
C        3.73694136       4.74164273       1.72650446      -0.22539692       0.73803931       1.33179263       2.20218086       0.95470804       1.63068843
C        2.01898171       3.21075235       2.29398353       0.66296408       1.10973291      -0.81177579      -0.92315817      -2.14032960      -2.68782759
C        2.74985083       3.76896937       1.01828469       1.27802739      -0.32505302       1.01342566       0.47758946       1.47885752       0.58941084
C        3.69629993       2.85053350       0.19512012      -0.95974256      -0.45928083      -0.37567571       0.74845070       0.97621644      -1.17694008
C        0.44388683       4.97801425       0.43162218      -0.30687140       0.15243356       0.12586509      -0.91339040      -1.10615492       0.70998359
C        5.32572799       4.24378886       1.61322762      -0.64570605      -1.53974285       0.17719727      -1.50783157       0.59137845      -0.81247818
C        3.66767232       0.63680770       1.18044536      -0.84540361       0.74197896      -0.13747826      -0.22729772      -1.28982770      -1.61138153
C        4.84658878       2.72376832       1.07563346      -0.57770811      -0.66741706      -1.57028178       2.57204485       0.20565325       1.63228416
C        3.92917423       3.40800266       4.13179419       0.73193516      -0.32512151      -0.05542053       1.98530316       2.13025475       1.69405580
C        4.69537948       1.56776051       2.09287106      -0.72744841       0.52988521       0.04009802      -2.26834607      -0.06335361      -0.59739256
C        1.14479866       2.85538514       5.02540803       0.39413659      -0.88264732      -0.87487781      -1.76939189      -0.99416542      -1.21495628
C        2.82771171       2.62557539       3.42590182       0.49195967       0.71982473       0.40419104       2.99810338       0.97799402       2.08291483
C        0.44994624       1.55660838       2.92398065       0.14743823      -0.94933467       0.29942807       0.80908263       1.54253101      -1.15112817
C        2.56676415       0.92140626       2.00581052      -0.12058763       0.62022487      -1.28362899      -0.94926620       0.02357154       0.57839108
C        3.29707419       1.42434684       5.39135686       0.31795373      -1.50349444       0.07147172       1.27721786      -1.90535212      -1.61985397
C        0.46609562       2.03025567       0.46346880       0.55635972       0.53446142       0.57793957       0.37895739      -1.14528131       1.60277212
C        3.50069684       4.85837263       3.68914275      -0.24681087      -0.43878439      -0.30378548      -0.36515078      -0.47549355      -0.93084836
C        3.52249500       1.51897437       2.94540092       0.96038935       0.07995696       1.44652502       1.57022548      -1.00040221       2.16914177
C        0.05459616       0.59930544       5.08231263      -0.42368404      -0.40604130       0.06776933       1.75080633       0.81667984      -0.11717147
C        0.87624304       4.01990979       2.84369838      -0.12837296       1.10981350       0.18842568      -0.22057889      -0.16049254       1.26265347
C        1.57330959       4.22199907       5.43287660      -1.27842234       0.19768752      -0.55775710       1.43771672       1.29118812      -0.45667130
C        1.84464086       4.96073018       3.93150051       0.31333707       0.83890364       0.12036426       0.32637453      -1.56156683      -0.50372690
27
Lattice="5.525534 0.0 0.0 0.0 5.525534 0.0 0.0 0.0 5.525534" Properties=species:S:1:pos:R:3:momenta:R:3:forces:R:3 virial="-3.7407310762837427 -3.9468524469113166 -39.01351991975929 -3.9468524469113166 14.354223218366675 8.740173047719423 -39.01351991975929 8.740173047719423 -12.00222374162131" config_type=Amorphous_Bulk pbc="T T T"
C        1.40210048       1.69955253       1.79308115       0.28749170      -0.97405501      -1.28183846      -0.72884619       2.18475437       0.53307164
C        1.17032761       0.75928082       4.12979279       0.27411827       0.05908818      -0.67950505      -2.47706127       0.16238101      -3.07069778
C        4.05180477       0.71612462       4.35608980       1.84930226      -1.99888885      -0.42716115      -0.56153578      -1.98826075      -0.59726632
C        0.17107400       2.99355117       3.71822275      -0.28709604       0.34563389      -0.39914906      -1.25325775       1.14835048       1.08366621
C        2.02692736       1.87187396       4.54151847      -0.33892092       0.93104180       0.26677845       2.09765029       1.82224584       0.27077737
C        3.90282271       4.76203436       1.66943086       1.01209242      -0.05594703       0.04325330      -2.12820458       0.76704484       1.19154215
C        1.99728825       3.09976277       2.14475577      -0.37454976       0.98974081       0.60509674       1.70411789       0.21328944       1.31938934
C        2.80687234       3.79628643       1.01545943       0.15490991       0.40760197      -0.51536804       1.04589880      -0.31235984      -1.48352969
C        3.79954276       2.85384282       0.12653508       1.67027705       0.68096213      -0.64733210      -2.33280206       1.45113087      -0.26673812
C        0.57578685       5.06438744       0.50662364       0.06907592       0.10872764       0.16917178      -2.10089445      -2.38228536      -0.71252906
C        5.28668596       4.26108357       1.53364587      -1.72573106       0.11729693      -1.18289487       2.51586914      -0.42765707       0.58854818
C        3.59527280       0.66937608       1.22406442       0.00733546      -0.11518879       0.16351918       0.94324249      -1.73003888      -2.06340075
C        4.87636056       2.72672864       1.08115054       0.27143166      -0.18371740       0.41874491       1.42193460       0.11494192       1.57196462
C        3.97427729       3.56892219       4.14276569      -0.03901040       0.99589582       1.07637703       1.30089521      -3.52786422      -0.30493817
C        4.56320336       1.58508694       2.08619163       0.20759729      -0.36499318      -0.50605274       0.53981793      -0.90799499       0.30722219
C        1.07486565       2.90019057       5.02523670       0.04606307       0.96851552      -0.23009099      -0.47820795      -1.77779603      -1.21638811
C        2.88852625       2.61717729       3.42915992       0.02545258      -0.76933704       0.70681022      -0.12837350       1.06871343       0.48537010
C        0.41236864       1.57487825       2.91863481      -1.69908785       0.72092248       0.33664476      -0.48150134      -0.24175662      -0.12061983
C        2.48104550       0.72830514       2.07960984       1.05790902       1.29530563      -0.80413237      -0.67821312       2.51795387       1.22345686
C        3.25560404       1.39903175       5.38387025      -0.65632443      -1.40620499       0.06323609       0.53934079       1.01533139       0.32966512
C        0.49934280       1.96145013       0.54660763      -1.11462467      -0.19330000       0.25865718      -0.80579853       1.26883101      -1.26886368
C        3.50463827       4.92561704       3.67462160      -0.66558989       0.66244429      -0.27669517       0.62671649      -1.79482794       0.40541005
C        3.53287600       1.41325503       3.08161168       0.27357495      -0.36334186      -0.07579235       0.16358694       2.18011022       0.08707207
C        0.07222842       0.63449682       5.21082569      -0.16350697      -0.67210256       1.23985541       2.30883217       1.30168414      -1.52034652
C        0.90778840       3.98741649       2.82593210      -0.84483765      -1.17732367       0.03753243      -0.20301932      -0.45598090      -0.92213589
C        1.57320262       4.30998507       5.29045366       0.18466976       0.78061457       0.54376067       1.34701157      -1.62694705       2.64580894
C        1.90355632       4.95224211       3.82159827       0.51797831      -0.78939129       1.09657422      -2.19719791      -0.04299408       1.50448871
27
Lattice="5.525534 0.0 0.0 0.0 5.525534 0.0 0.0 0.0 5.525534" Properties=species:S:1:pos:R:3:momenta:R:3:forces:R:3 virial="-3.7407310762837427 -3.9468524469113166 -39.01351991975929 -3.9468524469113166 14.354223218366675 8.740173047719423 -39.01351991975929 8.740173047719423 -12.00222374162131" config_type=Amorphous_Bulk pbc="T T T"
C        1.38558001       1.76903441       1.83238824       0.64517763      -1.43535732       0.68159038       0.91619664       0.04532608      -1.70976508
C        1.09870845       0.77034160       4.03802458      -0.26313372       0.56284304       0.06118292       1.64726841      -0.29817048      -0.34394905
C        4.09021396       0.69250035       4.32464176       1.41808974       0.39697551       0.17544976       0.79090166      -1.34007478      -3.00382280
C        0.09537269       2.97695394       3.79357529      -2.30399370       0.87359894      -0.39372234       1.25194311       0.81697005      -1.73009396
C        2.07671846       1.85110239       4.52835061      -0.76421265       0.35724696       0.10199214       0.94923294       1.46197104      -0.14765969
C        3.84490194       4.78473731       1.79773840      -0.03089214      -1.02206405      -1.53383073       0.56237292      -1.75175202       1.05245197
C        2.03958963       3.06244561       2.17113556       1.49386978      -1.02088489      -1.37792494       0.14816508       3.79562759       1.56905746
C        2.85942441       3.84293137       1.03609319       0.14131446      -0.79841787      -1.20704872      -1.79284143      -1.91102958       0.64894307
C        3.78860506       2.97730280       0.20565280      -0.22494921       1.10577982       0.28744555      -1.16330588      -1.91523027      -2.30493951
C        0.42331480       4.94127460       0.36951939       1.31677220       0.33570656      -1.46812783      -1.85133326       0.68467450       1.98040318
C        5.34885926       4.22983502       1.60493723       1.18551677      -1.28571340       0.26569247      -0.77520579       1.28048468      -0.62847406
C        3.57713790       0.54015399       1.12249600       0.29903507       1.04876879       0.71260484       1.71452296       3.21258616       0.85313803
C        4.90299745       2.75629994       1.07721849      -0.32060687      -0.28439783      -1.02512948       0.72346610      -0.78646904       2.17163372
C        3.95917768       3.48467655       4.20178104       0.71243500      -0.01798853      -0.22792585       2.01212645       1.07045424       0.24906930
C        4.62528010       1.54569800       2.06721286      -0.52029800       1.00402891       0.04819343      -0.85395575       0.59628975       0.15651298
C        1.11131721       2.85774470       4.98174339       0.00922663       1.35460716       0.28184916      -1.51742172      -0.65503800       1.62115610
C        2.90812488       2.70767471       3.50937229      -0.83516266      -0.70495481      -0.29816130      -1.02170515      -2.42138386      -2.09746480
C        0.41837667       1.55720594       2.94226020      -1.47168511      -1.32433749      -0.83258474      -1.32140326       0.62312150      -1.56247282
C        2.54155228       0.83677751       2.02347742       0.39104832       0.67340056       0.98989872      -1.43420196       2.27533007       1.83915222
C        3.36489121       1.35322605       5.31370097       1.73959738       0.84387364       1.27572088      -3.23661399       1.85337603       3.02290273
C        0.48959376       2.01425320       0.52130564      -1.77767220      -0.40806751       0.09828439       0.72950280      -0.86519611      -0.95374906
C        3.50935696       4.88144338       3.66362461       0.89525100      -1.15274852       1.15072727      -0.19550022       0.17415082       0.17014879
C        3.51917256       1.55833113       3.01291046      -0.51224242      -0.38730273       1.16421285       2.11613560      -3.67220020      -0.53346133
C        0.12734191       0.65934529       5.11992868      -0.35667929       1.46691417       0.12480732      -1.34874940      -0.37910670       1.30230105
C        0.88512881       3.95377055       2.76020314      -0.15922936      -0.31344229      -1.53710811      -0.41499647       0.35061258       2.42682433
C        1.50759173       4.27100883       5.38762302       1.23013245      -0.00423416       2.06879487       3.30431223      -0.96622187      -1.91320539
C        1.80806020       4.95587083       3.95057471      -1.93670910       0.13616737       0.41311708       0.06108811      -1.27910233      -2.13463783
27
Lattice="5.525534 0.0 0.0 0.0 5.525534 0.0 0.0 0.0 5.525534" Properties=species:S:1:pos:R:3:momenta:R:3:forces:R:3 virial="-3.7407310762837427 -3.9468524469113166 -39.01351991975929 -3.9468524469113166 14.354223218366675 8.740173047719423 -39.01351991975929 8.740173047719423 -12.00222374162131" config_type=Amorphous_Bulk pbc="T T T"
C        1.31219252       1.98990770       1.81154483       0.21166032      -1.52027627      -0.27701528       3.72898936      -4.44880676       1.02397120
C        1.11658380       0.75792656       4.08654538      -0.59727858      -0.20856085      -0.32272977       1.43192947       0.59800673      -3.07290173
C        4.12752439       0.65219852       4.13841198      -0.46974535       1.13910306       0.29523427      -2.15777159      -1.63463426       3.21464992
C        0.13224439       3.06243660       3.79900492      -0.62425873      -0.10056215       0.80808627      -0.18847314      -1.33397317      -0.78564513
C        2.13049939       1.85819465       4.56828290       0.31033711       0.26815983      -0.16595125      -0.98552835      -0.22546384      -2.17208409
C        3.83796509       4.70480771       1.84426243       0.48542239       1.15239340       0.60742017       0.24393228       1.70179522      -0.32392561
C        2.03680707       3.17973487       2.28311465      -2.75519710      -1.62265140       1.68271244       0.87537456       0.49423665      -1.89725971
C        2.82995187       3.83293251       0.97174691       0.69884117      -0.29682717       0.09244460       0.00725257      -1.53452241       2.31927967
C        3.81878610       2.85087460       0.19302945       2.08355050      -1.54843218      -0.74756517      -2.69526935       1.18603206      -1.62145019
C        0.40778599       4.87183649       0.36162582       0.51694524      -0.54003042      -0.84824806       0.26051164       2.00371408       1.30151510
C        5.42845226       4.31335054       1.63642319      -1.98813236      -0.26842832      -1.41730977      -3.72234082      -0.83200234      -0.34346050
C        3.47097809       0.53999843       1.10905268       1.98556386      -0.77553456      -1.26846399       1.94660389       1.49199843       0.03620765
C        4.84297878       2.68250576       1.16332790       0.18259530       0.46090215      -0.76592001       1.73185372       1.56941414      -1.11203289
C        3.96318275       3.45329041       4.24905955      -0.36853203      -0.28489706      -0.00853399       3.00408387       0.74801672      -1.29894626
C        4.59019385       1.54287466       2.01774513      -0.67008875       0.05897344      -0.64932349       0.56221998      -0.90606028       1.88074124
C        1.12474904       2.84934227       4.99870250      -0.92640857       0.98648960      -0.37725280      -1.28976595      -0.08951823       1.90527296
C        2.99416071       2.61702427       3.48398426       0.75847122       0.85293208       1.61575999      -2.53436065       0.30272466      -0.27983838
C        0.37010471       1.65224835       2.89291454       0.34297572       0.01490910      -0.71081236       0.46350914      -0.46312219       1.40297294
C        2.49430720       1.02861674       2.00913278       0.16629723      -0.77671132      -0.80399969      -1.55127394      -1.73427725      -0.51506948
C        3.37271096       1.35178622       5.27322112       1.40413192       1.20251627      -2.10292866      -1.37936544      -0.73942614       2.17413473
C        0.46052803       2.00325065       0.58847609      -0.79120613      -0.01804194      -0.04716547       1.54057634       1.34622836      -4.13442421
C        3.49238810       4.82616053       3.64638923       0.35358436      -0.27074042       0.65956506       0.09871531      -0.33296353      -0.82008696
C        3.55646452       1.42598847       2.97801053       1.34737572       0.75287932       0.35140523      -0.47069353       2.07228231       0.54338008
C        0.09687032       0.67261890       5.10048558       0.03564928      -0.19674533       0.69641894      -0.07332492      -2.41716647       1.72751904
C        0.91573785       4.00548047       2.82964128      -0.59940177       0.69661348       2.18090432      -0.55112404       0.99440038       1.92295241
C        1.66250806       4.26409901       5.44142495      -1.03152909       0.27829951       1.11027786      -1.14515936      -1.47350562      -1.66638052
C        1.71973416       4.84245413       3.88192942      -0.06162297       0.56426815       0.41299060       2.84889579       3.65659261       0.59090859
27
Lattice="5.525534 0.0 0.0 0.0 5.525534 0.0 0.0 0.0 5.525534" Properties=species:S:1:pos:R:3:momenta:R:3:forces:R:3 virial="-3.7407310762837427 -3.9468524469113166 -39.01351991975929 -3.9468524469113166 14.354223218366675 8.740173047719423 -39.01351991975929 8.740173047719423 -12.00222374162131" config_type=Amorphous_Bulk pbc="T T T"
C        1.33455270       1.85948092       1.78657475      -1.05738791       1.08879760      -0.26617056       1.64855385       1.01928926       0.77568018
C        1.07243304       0.78997185       3.98881450      -0.97778748       1.52571861       0.68536377       0.91435814      -1.43952155       0.72148931
C        4.08240910       0.54339406       4.38976621      -1.29950216      -1.34245374       0.16449708      -1.91103148       3.23373413      -0.90607899
C        0.15474807       2.95608228       3.71251137      -0.68314162       0.16711304       0.90763658       0.20663100       2.24040604       0.49989051
C        2.02712448       1.82622035       4.54372925       0.47362373      -0.98423901      -0.56143196       2.23553061       0.97323895      -1.33256543
C        3.96624687       4.78253439       1.86952793      -0.20609078      -1.00136220      -0.14808676      -5.23315144       1.22985888      -0.31338036
C        2.18833588       3.19309148       2.13362855       0.01344066       0.38152450       1.97872003      -4.33694077      -2.46386266       2.22324014
C        2.89188102       3.74199490       0.96760389       1.05572553      -1.06654188       2.01104546      -0.26656750       3.12652111      -0.36311102
C        3.84444909       2.95305752       0.11920158       1.61982386       0.15762295      -0.01035308      -2.03718662      -1.85594749       1.13588142
C        0.47319398       4.92738139       0.46197638       0.74833390      -1.00532804      -0.37445978       0.65772986       1.40784872      -3.07772374
C        5.32306809       4.38035550       1.61471739      -0.80304279      -0.12874919       0.40292367       2.63180709      -2.85403681       0.96629274
C        3.42690974       0.64214607       1.18565730       1.40439195       0.81345945      -0.74255282       2.56096935      -1.17817783       1.01689625
C        4.83017866       2.75631212       1.17040691       0.11528550      -0.33654568      -1.42970557       1.50424504      -1.00851369      -0.48053378
C        4.14135215       3.50333035       4.22623677       1.11119347      -0.10254156       0.06470969      -3.03753519      -1.40466285      -1.82635677
C        4.64126461       1.41412148       2.03856248      -0.32733266       0.88384727       0.68057114      -2.45384359       3.67341280       2.57399273