125
Lattice="9.863761 0.0 0.0 0.0 9.863761 0.0 0.0 0.0 9.863761" Properties=species:S:1:pos:R:3:momenta:R:3:forces:R:3 virial="32.021587278102515 1.3076180739033294 -49.22579916792888 1.3076180739033294 -3.3930683909570147 9.746574996632223 -49.22579916792888 9.746574996632223 40.10913663095583" config_type=Amorphous_Bulk pbc="T T T"
C        2.20903000       1.39310000       3.14876000      -0.52538226       1.08016937      -0.50726571       3.69746065       0.43142277      -4.22558260
C        0.58885000       4.45220000       6.64136000      -0.12864200       0.58311927       0.47595850       0.24978667       2.37894177      -0.29883087
C        1.86665000       5.10017000       9.07746000      -0.06942393      -0.12767076      -0.04329653       1.43223643       0.34878230      -0.83213860
C        9.38587000       9.42193000       0.37917000      -0.09306263      -0.27244544      -0.38127146      -1.49549627      -2.72749209      -0.83139551
C        7.95917000       7.05913000       7.22031000       0.53692212       0.69099993      -0.11012707       0.33522969       1.73596025       0.82541561
C        0.35139000       3.90228000       0.72488000      -1.10149121       0.44226982      -0.12347707       0.59815204       1.22331369      -1.00891006
C        6.60391000       9.01279000       2.13964000       0.69780476       0.04334176       0.21815681       1.89211941       0.26013267      -1.14207458
C        0.62848000       9.08018000       2.87728000       0.08952048      -0.93418493       0.54287493       0.51151854      -1.33214593       0.93176794
C        3.09560000       4.14510000       3.78523000      -0.61635917      -0.58063780      -0.05755160       3.09003687       0.61453462       1.47732878
C        5.46677000       4.57545000       0.81969000       1.26534696       0.05304756       0.21018862       1.02006078      -1.51618719      -1.55555212
C        6.28407000       4.88877000       8.13497000      -0.20397982      -0.72181546      -0.72766143       0.46903747      -0.73621976       0.70643997
C        8.54228000       8.34727000       6.79625000       0.48987048      -0.34227942       0.19793848      -0.17624107       0.62297648      -0.84365171
C        8.70831000       6.41908000       3.94525000      -0.03555228       0.21429832       0.43805329      -1.31194305      -0.93498039       1.20891786
C        8.52122000       1.79448000       9.85791000       0.61850756      -0.03347170       0.19881021      -0.79136288      -3.67184782      -0.70190549
C        3.26116000       8.42681000       0.23594000      -0.97502962      -0.16040029       0.05731939       0.24199283       0.86847293       2.00415230
C        9.82923000       1.39638000       2.03296000      -0.40571918       0.05628487       0.46948215       2.76785827      -0.13977669      -0.99091774
C        4.11380000       4.04479000       2.65210000      -0.01179607       0.52894411      -0.27947036       0.21677916       2.29579139       1.06256199
C        8.56930000       5.82276000       8.42998000       0.32416041      -0.96735252      -0.28600689      -0.74830401      -1.80413508      -0.54633409
C        6.36966000       2.36768000       1.73608000      -0.53626639       0.00799357       1.11846648       0.25157934      -0.43020105      -0.83096421
C        3.64461000       4.11547000       5.16034000      -0.06482770       0.31717803       0.29961213      -1.53467417      -0.48127499      -1.75215268
C        3.02546000       6.93959000       4.74523000      -0.17585482      -0.03102584      -0.20813722       0.86627078      -0.54214680       2.92271090
C        8.82587000       3.82464000       1.22613000       0.55817525      -0.07512518       0.73222040       0.55779850      -2.15333223      -0.82563412
C        4.89017000       4.60742000       5.62565000      -0.17590678      -0.11144046      -0.51939277      -1.28708696      -1.47646940       0.66992491
C        5.29791000       7.17905000       3.62968000       0.24206985       0.30678838       0.23548303       1.06486976      -0.22904894      -0.86878920
C        5.04520000       9.33507000       6.85220000      -0.17884613      -0.02378159       0.39606644      -1.62044692      -0.16704133       0.11861330
C        5.66415000       0.80657000       0.09453000      -0.31463819      -0.01943955      -0.26818393      -1.05387652       1.02035582       2.89675212
C        1.37726000       2.76519000       0.83393000      -0.31357829      -1.07653777       0.61177407       0.75512022       1.17937684       0.62917590
C        1.47618000       1.17878000       4.23345000       0.26499120      -0.83871841       0.26590196      -0.97005361      -2.49497986       2.48331666
C        1.99458000       9.64058000       6.62850000      -0.67946175      -0.04130459      -0.14589033       0.29957634       0.10668293      -0.31165650
C        5.07615000       5.09295000       9.30767000      -0.01404716       0.77691030      -0.12612580       0.50135833      -0.85572863      -1.45294178
C        8.74942000       4.64828000       2.40868000       0.18116956       0.28260582      -0.01077928      -1.11973500       0.53558612       2.05137992
C        3.96063000       1.77304000       1.72565000      -0.02212795       0.65976570      -0.87331809       2.00366974      -2.61566281       0.44370830
C        8.80968000       2.22033000       1.34242000       0.26553724      -0.29130899      -0.13874771       0.10037604       0.03779866       2.18345022
C        1.97204000       6.55827000       5.67177000      -0.07385533       1.24219117       0.51464234       0.46588579      -0.74446476      -0.66481310
C        4.81699000       1.84809000       4.63819000      -0.48365489       0.29606262      -0.59988315       2.22343016       0.20978265       1.34891820
C        5.94733000       5.95570000       7.12974000       0.57780880      -0.23820631       0.41028171      -0.76219887       0.18519983      -2.00318813
C        1.73156000       8.25881000       2.64696000      -0.65299489      -0.41960872       0.08907805      -0.22875351      -1.01029170      -0.76546025
C        6.94298000       2.31975000       3.06504000       0.18337057       0.15673388      -0.37414201       0.68885946       2.11486626       0.68174404
C        2.58894000       3.55843000       0.89763000      -0.44630777      -0.54762082       1.01262177       2.47515726      -0.24971592      -0.41674960
C        7.28548000       9.69352000       8.74297000      -0.20504091      -0.15324613      -0.33807742       0.55649060      -0.60972965       0.50299424
C        4.94111000       0.61728000       7.56464000       0.31926963      -0.66493930      -0.34197327      -1.63220119       1.17226529      -0.18797219
C        2.80472000       3.76057000       6.41319000       0.80072125       1.13247247       0.55946226       1.96708250       0.14366710      -3.93926859
C        9.53907000       8.03178000       5.71948000      -0.76088397      -0.53824345      -0.37256287      -0.79112601      -0.17560664       0.28644884
C        4.63109000       7.04433000       5.10755000       0.71681265       0.01923669       0.12317903      -0.68448269       0.11626074      -2.65300846
C        5.72128000       2.46545000       5.56884000      -0.13149516      -0.69948359       0.24893484      -3.03912497      -1.47774136      -2.09691095
C        2.54836000       7.73354000       1.50370000       1.08435701      -0.75110823      -0.81273988      -0.37103772       1.10960293      -0.40126348
C        2.35429000       9.24093000       9.20386000      -0.46423069       0.05859205       0.65759121      -1.34081185       1.39040899      -0.33981103
C        7.19317000       8.23923000       9.54866000      -0.45449855       0.33702106       0.81275872      -1.77580631       1.40031981       0.62864661
C        6.13592000       7.44645000       8.89962000       0.71271851      -0.23631597       0.31214418       1.51384616      -0.79254359      -1.82172823
C        5.21770000       3.48644000       6.59703000       0.70753620       0.29255885      -0.35041085       1.77494371      -1.09179664      -1.62357461
C        4.04943000       4.03567000       8.70636000       0.12893037      -0.35442944      -0.51043161      -1.35740244       1.29670143       1.95090771
C        8.28478000       5.93809000       2.62668000      -0.50220329       0.11457459      -0.20991182      -0.35377741       0.79628980      -1.62212598
C        1.79028000       4.14045000       3.53805000       0.95316336       0.19387853      -0.04522021      -4.58400011      -1.61272955       0.87151957
C        4.68784000       0.68270000       3.86517000      -0.21325106      -1.21688726      -0.52145322      -1.83560789       2.04658771       2.84833622
C        7.79499000       2.71239000       9.09539000       0.47087829      -0.47708509       0.87820369       0.31111079       0.73093915      -0.51804340
C        8.65823000       7.71487000       4.54266000       0.13039862       0.10027057      -0.12783999      -0.73887336      -1.37724280      -0.39866433
C        1.74017000       0.69263000       9.47236000      -0.02235060      -0.55170549       0.80577251      -2.14202356      -1.78658283       0.36001384
C        2.15962000       5.97996000       7.89103000      -0.77288668       0.37033325       0.08813120      -0.49756080      -1.20166945      -0.25509167
C        7.48404000       8.74094000       4.44808000      -0.10425562       1.95652464      -0.18207486       0.62893713      -2.86441040       2.47938728
C        0.66497000       4.95786000       9.72575000      -0.61586127       0.29332862      -0.17593961      -2.43542814       0.66761982       1.10946763
C        7.36901000       9.00542000       6.05505000       0.64049466       0.25235526       0.26794002      -1.25410223      -0.42142838       1.15503585
C        7.59504000       3.13046000       3.97850000       1.08119681       0.54238947       0.75432751      -0.30942234       0.16333687       1.24026442
C        1.35517000       1.76937000       2.04276000       0.56201201      -0.18045509       0.09349509      -3.36710262       0.56075019      -0.84003532
C        0.64363000       9.74809000       4.27706000      -0.22647886       0.60133022       0.64341990       1.58866560       1.00082648      -0.95409799
C        9.37081000       1.67245000       5.28240000      -0.35870984      -0.32808558       1.26740596      -0.07707918       0.04331142       0.47678176
C        7.96482000       0.04872000       3.93610000       0.48099649       0.13673013      -0.15413325       2.50150967       2.51612306      -2.05967569
C        1.00021000       7.55612000       5.76019000      -0.28809815      -0.08770154      -0.21633688       0.63014972      -0.57207298      -1.05418956
C        0.62419000       3.48969000       4.01512000       0.84395759       0.17701581      -0.46839322       1.12222540       1.09595907      -0.15297183
C        9.00465000       2.04919000       8.38818000      -0.11589248      -0.34103588      -0.79624317       2.76851892       1.81993389      -0.27869928
C        0.88214000       2.23875000       5.00030000       0.40341214      -0.43327678      -0.52578542      -0.14507878       1.41950846      -0.79846001
C        6.40730000       3.49360000       0.81266000       0.18913239       1.16274771       0.48749923      -1.58850932       3.87281990       0.21282694
C        3.25919000       6.80279000       2.34419000      -0.35539535      -0.08654696      -0.20391491       0.94101423       1.62921536      -1.38499057
C        6.13791000       8.46249000       3.50428000       0.07055327       0.42173573      -0.12306699      -0.26717991      -0.49084800       1.15915430
C        2.60378000       1.27255000       6.59995000       0.73787068      -0.52559149       1.58453951       0.21116489      -1.96160686       1.71125317
C        9.34524000       5.16471000       6.05404000      -0.76412775       0.88560466       0.27955933      -0.83765495      -0.14470777      -0.03935581
C        3.63450000       3.08264000       1.73136000      -0.61994438       0.58681739       0.22707723      -1.97760773       2.01822758      -1.94433928
C        8.96160000       6.89079000       0.55899000       0.60660371      -0.03979710      -0.30902632      -1.53806078       0.48325846       0.64693606
C        1.93236000       5.20313000       6.58788000      -0.67005767      -0.41441903      -0.15158581      -0.77991569       1.90846705       0.65345746
C        1.16035000       9.01043000       5.53036000      -0.62691132      -0.06610858      -0.06061721       0.98545593      -0.17382650       1.46205974
C        4.79290000       6.52634000       2.31060000      -0.84735015      -0.77379376      -0.51855807      -1.31018496      -0.31262773       0.57272685
C        4.89734000       6.70754000       9.47958000       0.32826680       0.11739828       0.16027623       1.77341890       0.57806838       0.98825729
C        6.49064000       7.22761000       7.50309000      -0.15706531       0.55699070      -0.72919844      -1.20264387       0.27428600      -0.08716392
C        7.11622000       2.65853000       5.27274000      -0.43984462       0.05336210       0.44958849       2.30498505       0.72482616      -1.00291336
C        1.39384000       2.03993000       9.36882000       0.16824914      -0.65750707       0.06727326       0.26360416       0.17459846      -0.75356328
C        5.21475000       9.31957000       4.29628000      -0.19988755      -0.12930529      -0.57555944      -0.16369402      -0.87963969       0.36388540
C        8.30993000       0.41130000       9.71003000      -0.38544955      -0.41778085       0.15979035      -0.18296716       0.95552713      -1.29601359
C        3.60789000       7.42937000       9.15462000      -0.61864919      -0.11282123       0.54802134       1.14829731      -3.10578728      -0.72143173
C        2.65415000       7.26983000       3.48103000       0.76377248       0.59595319      -0.59803850      -1.96846259       1.33755147      -0.14215457
C        6.85875000       2.14721000       8.07251000      -0.27256562      -0.17216711      -0.10692682      -0.59131044       2.37970924       1.18253827
C        8.01507000       1.44587000       7.28144000      -0.58724565       1.65633008       0.03505128       1.11538363       0.78718734      -0.02723096
C        5.60922000       9.71389000       1.16899000       0.73712921       0.15161188      -0.07440181      -1.99054337       1.00550342       0.92488956
C        8.62725000       8.15043000       9.85317000       0.29260100       0.03231634       0.78893001       2.30844688      -0.08415133      -0.67805958
C        9.20211000       0.56000000       4.50544000      -0.72007789      -0.87600104       0.53838475      -1.07913363       0.73419559       1.05808115
C        4.86622000       5.03519000       2.01946000       0.03485320      -0.44927266      -1.10567561      -0.88584346      -0.43383032       1.54266047
C        9.43331000       9.77663000       1.99106000      -0.72406461       0.27126597       0.48305416       0.91737843       0.23092689      -0.41059124
C        8.64262000       5.88884000       6.98887000      -0.83848471      -0.03790484      -0.18554968       0.72982824      -0.70109206       0.00246751
C        3.59360000       1.10696000       2.88694000       0.13372587       0.70904538       0.66515494      -1.91985261      -0.13132060      -0.07842681
C        7.65377000       1.58646000       2.07483000      -0.36580037      -0.16550429      -0.58616476      -0.29666302      -0.04797989      -0.93050706
C        8.17232000       2.16048000       5.97101000       0.69883190      -0.75754316       0.25043546       1.54275453      -1.49970102       1.49031031
C        5.31671000       1.44750000       1.32373000       0.22495079       0.35473668       0.63261847      -1.20064819      -1.32788062      -1.60610342
C        5.21182000       5.89040000       5.94509000       0.00208553      -0.95580988       0.02091606       0.29311651       0.37268305       1.20445049
C        6.09668000       8.44025000       6.60182000       0.05414349       0.12556603      -0.37512281       2.46105099      -0.24414235      -0.70333797
C        7.47656000       5.10336000       9.00391000      -0.30312772       0.21133094      -0.16634124      -0.31818807       1.47988510      -2.03256369
C        8.95949000       4.02492000       3.78013000       0.69431452       0.09892358       0.12535153       1.01376295      -1.25257039      -0.63564050
C        7.61022000       3.98940000       0.01784000       0.19940922      -0.38372727      -0.44352774       1.64713919      -3.19903088       1.66006708
C        3.81510000       1.59515000       7.28517000      -0.95400751      -0.30218243       0.23860801      -1.61905575      -0.11674570       0.06894417
C        6.37482000       3.51459000       7.48096000      -0.63910528      -0.25409533      -0.18950965      -1.63112521       0.31428307       0.46472618
C        9.00808000       5.19475000       4.67736000      -1.20413478      -0.00613201      -0.63117269       0.38276562       2.25002575       0.86411363
C        5.98730000       0.94108000       8.63601000       0.29734615      -0.43988917      -0.02429148       1.69129145      -1.60839236      -3.10932660
C        0.58138000       2.38421000       8.24396000       0.49983334      -0.25088563      -0.97372522      -3.53884912       0.71707243      -0.28041130
C        7.89369000       6.80280000       1.47064000       0.76221648      -0.03060134      -0.05711211       1.29187894      -0.78946608       2.40528536
C        2.72431000       7.28819000       8.06256000      -0.13644285       0.27656641      -0.53937236       0.16196607      -0.05224481      -0.09256810
C        3.90273000       3.18368000       7.34898000       0.88886214      -0.47812368      -0.39566389       1.18850684       0.43196800       1.45918369
C        5.25091000       7.32476000       1.03304000      -0.74175281      -0.80562663       0.50678308       1.10456002       0.78281015       1.92885566
C        5.02587000       8.48793000       5.57064000       0.76931607       0.39234290      -0.46631974      -1.72749162       1.03933954       0.16597211
C        1.83466000       2.56621000       6.19981000       0.26009842      -0.40409259      -0.25424259      -0.01224428      -0.12440896       0.48579499
C        6.83370000       7.86645000       1.21257000      -1.17836738      -0.24721910      -0.45061599      -1.40301418      -2.39782619      -0.37749553
C        2.41464000       8.72719000       7.77805000       0.34048061       0.05996985      -0.18044784      -1.21569741       0.69083345      -1.67727697
C        7.96184000       9.71253000       7.32665000       1.46388991       0.06695600       0.35438123      -0.68084532       0.99950910      -0.29495507
C        4.61608000       8.68865000       0.92926000      -0.22183255       0.43551296       0.04262805      -0.35919166      -0.49576211       0.16937074
C        7.89271000       0.09496000       2.42150000      -0.43934544       0.78876784      -0.51102390      -1.19653583       0.26045868       1.46465719
C        9.47434000       5.98715000       9.51123000      -0.13485014       0.04077370       0.25395633       3.15454245      -0.55996513      -0.15594339
C        0.83535000       3.21400000       7.13215000      -0.40632487       1.04995737      -0.55918132       0.72507566      -3.28788328       1.33251882
C        0.88704000       9.49386000       9.62792000       1.60595620      -0.31045025      -0.47541135       1.23038685       1.76484656       0.42686987
C        2.86259000       4.23600000       9.54616000      -0.06944691      -0.00062516      -0.95595298       0.58786082      -0.13833714      -1.30079532
125
Lattice="9.863761 0.0 0.0 0.0 9.863761 0.0 0.0 0.0 9.863761" Properties=species:S:1:pos:R:3:momenta:R:3:forces:R:3 virial="32.021587278102515 1.3076180739033294 -49.22579916792888 1.3076180739033294 -3.3930683909570147 9.746574996632223 -49.22579916792888 9.746574996632223 40.10913663095583" config_type=Amorphous_Bulk pbc="T T T"
C        2.21911254       1.47061100       2.90029277       2.06257355       0.99132172      -0.99415351      -0.95566750       0.13147813       0.48127460
C        0.71898470       4.64756610       6.53448393       0.97872140      -0.79861840       0.15711362       0.48032528      -0.95693719       0.75417161
C        1.88702075       5.12800162       8.93004062       0.68584788       1.07244550      -0.02244799       1.12588298      -0.84258223       1.57134712
C        9.33224994       9.04991823      -0.45269725      -0.60139644      -0.24067542      -2.49609269      -2.52698445      -1.07106483       1.74239898
C        8.02577883       7.22696160       7.15659274      -0.29827000       0.48009222       0.95821182      -1.02655566       1.39321959       0.86389899
C        0.55581025       3.90759680       0.76777961       1.31800543      -0.46580683       0.22234729      -0.95143563       2.12267113      -0.94872463
C        6.70910845       9.13496241       2.19884256       0.53703028      -0.64443629      -1.21292881      -1.16774929      -1.14155316      -0.56083268
C        0.61405839       9.04255267       3.02623830       0.99503493       0.00342310      -0.72723166      -0.66094548       0.29325640      -0.65128219
C        3.02421004       4.29758353       3.77465551       0.09687779      -0.41477181      -0.16933717      -2.22922611      -0.03973867      -0.86835766
C        5.34471594       4.60491202       0.71412901      -0.23263817      -1.07803530       0.28897873      -0.46080324       0.07870302       0.93673432
C        6.45687691       4.80824093       8.13121395      -0.53387256       0.67803769      -1.03093060      -2.21721077       0.52508903      -1.52885962
C        8.40627390       8.54252068       6.59849889      -1.91530834       0.10229686      -0.20147987      -0.03350049      -0.54173511       1.17504811
C        8.24939157       6.19213405       4.04021706      -0.44111075       0.00294171      -0.20462143       0.08333835      -0.62369704       1.41467965
C        8.54466625       1.55914065       9.80560009       0.62590331      -1.71328468       0.57187513      -0.51222897       0.69797575       0.81071639
C        3.23090217       8.55235641       0.39369496       0.53041498       1.09687152       0.10583757       1.21917975      -0.77460515      -3.27867889
C        9.89944931       1.25009170       1.83979517       1.07251071       0.67724379       0.43770933       1.51058090       1.36695266       1.24876750
C        3.82844708       4.45695284       2.55045737      -0.65055198       1.32416123      -0.64418368       0.54509223      -2.04597402      -0.82064509
C        8.82618576       5.43193469       8.50783053      -0.09176623       0.47737115      -0.11111398      -0.27737138      -0.01392627      -0.99708295
C        6.44160510       2.43854873       1.80463619       0.24995978      -0.08666063       0.35116816      -0.67893410       1.05678630      -0.45658663
C        3.58284867       4.00305046       5.07258853       1.01622136      -0.35719899      -0.06483559      -1.40251780      -0.84987730      -0.17424664
C        2.92951638       6.83522948       4.70052309      -1.46147095      -0.43372762      -0.05087247      -0.38500771       1.03301382       0.95751590
C        8.98110404       3.70502699       1.28259505       0.72426696      -0.01418813       0.20037374       0.78392452      -0.63584858      -0.63962215
C        4.78571612       4.48062840       5.62208624      -0.45271533      -0.28170466       0.41942271       1.45622098      -0.47023001       0.23953027
C        5.36676893       7.21310233       3.64456924      -0.69219624       0.39690536      -0.02162327       0.30776393       0.37021872       0.34216931
C        4.75472566       9.26316665       6.93360471      -0.13479454       0.14257235       1.22137551       0.22191980      -0.62546527       0.70746797
C        5.49726847       0.81748458       0.16726672       0.61667941       1.47361477       0.88689765       0.83076715       0.23796149      -0.10495365
C        1.51353767       2.81463186       0.70703806       0.23805168      -0.56499630      -0.12151550       1.56216645      -1.43064165       1.05931580
C        1.57675529       1.19112182       4.08361236      -0.75734964       0.85783799       1.04183950      -0.74554807      -1.23599553       1.83345199
C        2.12426874       9.55766469       6.74861060       0.13780206      -0.11266978      -0.10096389      -1.00047183      -0.31516656      -1.29712653
C        5.19275001       5.13007953       9.15299449       0.21206569       0.52411444      -0.82741973      -0.15232176      -0.82614970      -0.21676870
C        8.85409372       4.54237474       2.54683551       0.48269834       0.17716557      -0.15491283      -1.35146737       0.73849565      -0.41002041
C        4.10806088       1.92541302       1.87870889       0.29572631       1.49478730       0.48053964       0.72554004      -0.48867139       0.50209320
C        8.86125325       2.15055682       1.35317643      -1.11882582       0.63134463      -0.11275669       0.44528750      -1.29555798      -1.25801897
C        1.73594576       6.73317073       5.58889407      -1.15710975       1.40620754      -0.01249229       1.46895051       0.98146677      -1.52452052
C        5.33705308       1.52627286       4.65342038       2.31908837      -0.09750866      -0.28624839      -1.30033922      -0.14982414      -1.63203990
C        6.00869950       5.93157827       6.99055671       0.32479289      -1.69411048      -0.10371534      -0.06201865      -0.76813644      -0.91472310
C        1.50216136       8.08669662       2.67988644       0.14332105       0.90786132      -0.06141004       1.77619481       0.04561761      -0.60136271
C        7.10524229       2.52021641       3.07435120       0.88834644      -1.58158408       1.04977305      -1.02824128       0.22328746       1.04854417
C        2.88945751       3.43771452       0.50057569       1.33700124      -0.84990543       0.12560641      -1.43910182       0.25924149      -0.63244641
C        7.13731367       9.66350361       8.67700459      -1.20906442      -0.28170826      -0.17254720       0.83085030      -0.24179408       0.26379183
C        4.73206742       0.55405171       7.73627763       0.24331172      -1.37647472       0.89916721       1.78283644      -1.53199887      -0.18744306
C        3.07054309       3.08614068       6.00569399      -0.34938395      -1.03086292      -0.35106345       2.75456738       2.52753878       1.35163474
C        9.25415960       7.91884081       5.54420178      -1.55560747       2.02733968      -1.04903379       0.36804932       0.23706073      -0.80746305
C        4.55036742       6.99256003       5.02544156      -0.35425068       0.11978932       0.72533213      -0.85763299      -1.59300303      -0.42707455
C        5.93681640       2.30219946       5.53032340       1.04188476       0.26758735       1.07151217       1.85909355       0.05454099      -0.57398534
C        2.54669598       7.85984334       1.45694041       0.32073046       0.65726515       0.06911615      -1.08973002       0.29662162       1.83012617
C        2.18484703       9.21554252       9.29812628       0.35344625      -0.28208152      -0.53578732       0.56831616       1.08941483      -1.41969633
C        7.08816601       8.25326685       9.48866529       0.59384833       0.42458915      -0.51556546       0.91245711      -1.16832471      -0.09347197
C        6.20432784       7.35229175       8.80877503      -0.53847875       0.92466644       0.47996512       0.25677148       0.33914784      -0.88441181
C        5.36459912       3.34113310       6.43797800       1.16916039      -1.54660306      -1.18906067      -0.31819087      -0.63485879       0.96352327
C        4.03347361       4.30025327       8.35075075      -0.06582960       0.59005974       0.19951749       0.81901765      -0.27950472       1.52362990
C        8.08454061       5.73575563       2.70077511      -0.23158602       0.65961252      -0.04431035       1.07725310       0.65604997      -2.39375830
C        1.64312485       4.05392412       3.58018579      -1.29959237      -0.25548346       0.02938448       2.81681275       1.07729614       0.10826245
C        4.44513035       0.71557753       3.99864995       0.35717526      -0.84869968      -0.76723738       0.01368019       0.34948382       0.91185385
C        7.69327276       2.61467095       9.23057573       0.02446639      -0.15295009       0.40975507       1.00645399       0.43941617       1.01323581
C        8.18973314       7.46252552       4.62411627      -0.82131795       0.09463298      -0.26221495       1.45014358       1.31231201       0.23669621
C        1.43193751       0.61313630       9.37658299      -0.84636298       0.71800478       0.04232645       0.68706107       3.69613290       0.54981017
C        2.15625160       6.06306849       7.85185254       0.81034157       0.75637155      -0.43576662      -0.27236035       0.60345638      -0.71670461
C        7.30223164       8.78659377       4.59214943       0.14021786       0.01093704       0.19318824      -0.71719563      -1.74138296      -0.70135725
C        0.89318772       5.09640563       9.88993288       0.06132733      -0.19844938       1.27147428      -1.60408497      -1.12701273       1.20845139
C        7.10741636       9.14367648       6.03692350      -0.16377353      -0.23171237      -0.36702857      -0.37141833      -0.23120767       0.99087191
C        7.78765638       3.13187923       4.09361980       0.16982402      -0.82664026       0.54237472       0.47632331      -0.62292951       1.61698329
C        1.35670017       1.80964390       1.85562472       0.81161560      -1.27752817      -0.41014238      -0.85443354       0.19144210      -0.90162104