27
Lattice="6.403228 0.0 0.0 0.0 6.403228 0.0 0.0 0.0 6.403228" Properties=species:S:1:pos:R:3:momenta:R:3:forces:R:3 virial="26.379653532115288 -2.8806012487978325 9.10033438939633 -2.8806012487978325 29.382052443831384 -5.3396463792146145 9.10033438939633 -5.3396463792146145 19.280274427293133" config_type=Amorphous_Bulk pbc="T T T"
C        6.36673000       0.38334000       4.97441000       0.60241696      -0.07605963       0.05005911       1.80471468      -1.97389555      -1.96454167
C        0.57614000       0.46532000       1.60801000      -0.26218548       0.31010102      -0.20289614       1.69519699      -1.15353525      -0.13582838
C        4.75409000       3.84822000       1.93411000       0.67192397      -0.20462494      -0.86469578      -2.46323347       1.79242539      -4.18726969
C        5.96414000       1.12766000       1.28387000      -1.62326722      -0.07500172       0.45927569      -4.72761583       0.16613746      -2.44870591
C        3.72692000       1.87361000       1.41252000      -0.21280680      -0.73896084      -0.38356178      -1.78766298       2.24921560      -0.95911878
C        2.87941000       0.29846000       4.14221000       0.07214462      -0.11001309       0.00533677       0.61127234       0.54628837       1.86117995
C        4.59222000       6.38383000       2.50338000      -0.88665148      -0.91776395      -0.03432997      -6.67468023       1.50358260      -0.73220569
C        1.67263000       0.41975000       2.26556000       0.71376588       0.98772386      -0.28072520       5.77525902      -2.15544510      -2.78202963
C        3.48240000       3.29348000       1.70380000       0.31103778       0.39643059      -0.47161471      -2.18687940      -5.42204952      -0.96091151
C        5.26536000       3.06203000       3.89985000       0.89081236       0.03402387       0.04606596       4.25531149      -7.68192959       6.40034723
C        5.19366000       6.04205000       0.53600000      -0.19167349      -0.45736717       0.51718440      -0.46770412      -0.48426625      -1.59868574
C        4.91066000       1.50567000       2.31530000       0.23910031       0.38353565      -0.11169093      -3.18800831      -6.32579565      -1.21057296
C        4.50728000       4.95369000       1.02695000       0.14098576       0.52578066       0.59107117       2.96633291       0.81999147      -1.54764771
C        0.37564000       2.59844000       3.68645000      -1.44427747      -0.38601932      -0.98124091      -6.49371243       1.74916101       3.32090306
C        2.21134000       3.51102000       2.09637000      -0.21966764      -0.04115871      -0.02036547      -3.62929463      -1.27009344       3.76327419
C        2.24151000       0.89054000       0.95924000       0.82190211      -0.50464129      -0.12555923       2.77517962       2.73057890      -2.08928227
C        5.00091000       5.19025000       5.73594000       0.16346926      -0.15106009       0.96406417       0.32888511       1.14324987       5.12761927
C        3.53894000       1.37732000       5.01113000       0.13330676      -0.06069307      -0.36343330       1.60227633      -1.31613064      -4.89602327
C        5.57320000       5.64110000       4.56637000      -0.28539590       0.82806895       0.43252746      -0.28313863       2.12267900       2.65304422
C        4.81035000       5.40350000       3.39802000       1.03632800       0.54638364      -0.50467683       4.96441841       1.87300515       4.07185650
C        1.31881000       2.97191000       2.97168000       0.10850055      -0.10247702      -0.69247559       7.97894144       5.41829348      -7.46876478
C        4.48351000       1.85249000       4.01644000      -0.02381048       0.16440961      -0.46250652      -0.76977611       2.77362347       2.14290953
C        4.84849000       4.07512000       3.29872000       0.03398588       0.36557467      -0.19614102      -2.03365302       5.23529434      -5.72912645
C        1.62164000       0.47919000       4.51994000      -1.17899543      -0.21283166       1.01336205      -8.16345978       2.25257111       1.90069354
C        0.45834000       1.44630000       4.34254000      -0.63863681      -0.46016544       1.53173028       4.69293070      -3.91344404       2.39469433
C        2.79015000       1.43520000       6.20754000       0.56314217       0.02585491       0.09040615       1.14740658      -0.49142531       3.81165743
C        2.88397000       6.30924000       2.82562000       0.46454581      -0.06904949      -0.00516983       2.27069688      -0.18808621       1.26253486
27
Lattice="6.403228 0.0 0.0 0.0 6.403228 0.0 0.0 0.0 6.403228" Properties=species:S:1:pos:R:3:momenta:R:3:forces:R:3 virial="26.379653532115288 -2.8806012487978325 9.10033438939633 -2.8806012487978325 29.382052443831384 -5.3396463792146145 9.10033438939633 -5.3396463792146145 19.280274427293133" config_type=Amorphous_Bulk pbc="T T T"
C        6.53870954       0.40923400       4.80821879       1.71186681      -0.79509809       0.72077921       2.72873139       2.70964289       0.54216170
C        0.79087035       0.65490601       2.00573749       1.37402306      -0.71971661       0.63749534      -0.58180046       0.24104977      -0.33561212
C        4.16998882       4.12426575       1.62592621       0.62385726      -0.54221452      -3.61119063      -0.48331267      -1.95889390       2.12264657
C        5.94301851       0.56649902       1.58790192       1.19877772      -3.43874919      -0.08212011       0.33920503       2.33645391       1.01572251
C        3.89149535       2.03339804       1.17603177       2.04476782      -0.76253223      -0.39014473      -0.59104347      -0.52045655      -1.06715870
C        2.54917223       0.32387631       4.21925543      -1.00706090       2.44454710      -0.79907003       2.55896902       1.46822584       2.07606697
C        4.16722909       6.45872241       2.71415523       3.82031844      -1.65285135      -2.06833688      -0.16488069      -2.50255632       0.82611698
C        1.96682777       0.20265231       1.59730059      -0.69499918       2.56593230       0.93614637       1.06047440      -1.69552016       1.16849017
C        3.04238022       3.18729873       1.60579173      -3.56634500      -1.01078230       0.91356359       2.72099113      -0.06914845      -2.08314037
C        5.34152582       2.99476645       3.61708118      -2.44858329       1.41768240      -2.63230050      -1.24311757      -0.50391901       2.79866123
C        5.64920065       5.95403266       0.73192726       1.26683030      -0.44212448      -1.11494466      -1.75534153      -1.48320007      -0.58348334
C        4.61542336       1.39294021       2.30481375      -1.55088153       4.84747075       1.27522819      -0.82071531      -2.25722718      -0.15942134
C        4.75582538       4.83612586       0.65958239      -0.75609609      -0.84567569       0.35834529       0.42586923       0.65729558      -0.01110768
C        0.27092704       2.95016974       4.17552767       0.87049996       1.64874729       0.52575473      -1.75150633      -0.39695317      -0.93691134
C        1.85005979       3.29176898       2.11457197      -0.98709115      -1.05061880      -0.24802464      -4.61011124       0.67795682       4.86240768
C        2.44405186       0.23963936       0.16638078      -2.52299455      -4.48249426      -1.88802189       0.03683937       3.06050491       2.19594812
C        5.14595370       5.46505476       5.91552815       2.81338232       0.45580980       0.61062089       1.49593377      -0.54123056       0.26295209
C        3.68980479       1.30163233       4.87731498      -0.12418386      -0.66862587       0.75072195      -0.49642262       0.19917922      -2.10572004
C        5.67274317       5.73240692       4.67676652      -0.42300720       1.48275326       0.46804886      -1.95386398       0.22864088      -2.11266780
C        4.83625496       5.39338180       3.46150684       0.55080526       0.69675180       1.43247912       3.44703150       1.40237856       0.65604264
C        0.97068283       3.45212501       3.11288604       0.77661850       0.24917736       2.94477208       5.46137142       0.18898149      -4.23126936
C        4.24338107       2.06650726       3.79253080       0.37019941      -1.76434542      -0.46122724       2.44999886      -0.84622604       0.99632776
C        4.96207511       4.12660422       2.92321611      -2.94051370       0.47817272      -0.50504161      -2.46540499       2.51840997      -2.01935387
C        1.64746988       0.54348616       5.39586810       0.95620968       0.26865818       1.21235780      -3.51072884      -1.82043207      -4.13443899
C        0.57160662       1.71266457       4.73723496       1.41723170       0.79634071       1.40803886       0.32744998      -3.91121840       1.67835522
C        3.54340629       1.26840156       6.31919743      -2.14145141      -0.74901875       0.12453408      -0.88682479      -0.08778612      -0.17289685
C        2.77835579       6.15616955       2.91971590      -0.63218037       1.57280388      -0.51846345      -1.73778999       2.90604830      -1.24871778
27
Lattice="6.403228 0.0 0.0 0.0 6.403228 0.0 0.0 0.0 6.403228" Properties=species:S:1:pos:R:3:momenta:R:3:forces:R:3 virial="26.379653532115288 -2.8806012487978325 9.10033438939633 -2.8806012487978325 29.382052443831384 -5.3396463792146145 9.10033438939633 -5.3396463792146145 19.280274427293133" config_type=Amorphous_Bulk pbc="T T T"
C        6.75031151       0.42814342       4.83816695       1.65478040      -0.22954435       1.85719238       0.29772186       2.86985087       1.84391761
C        0.57636342       0.26448209       1.97218346       0.12372226      -3.05664554      -2.42685959       1.06454229       1.00966942      -0.33044916
C        4.12337707       4.15933132       1.67033915       2.68145893       1.05672081      -0.71691387      -1.45567930      -1.78479922      -1.04702997
C        5.81850453      -0.08632773       1.44507586       0.52718255       0.60884179      -2.90566225       2.04923725       0.99076831      -1.11520720
C        3.70240362       2.23282836       1.14702434       0.92129402       1.54814442      -0.46570503       1.32283962      -3.37545514      -0.65221083
C        2.72789774       0.42299618       4.25735061      -0.91711329      -0.65695604      -1.07563092      -0.29915452       0.92946440      -0.55304480
C        4.77910126       6.63389730       2.33363065       0.24995713       1.41038992       2.88126010       1.12426662      -3.32331514       2.58148909
C        1.79600574       0.47557938       1.49740715      -1.90248067       1.85261064       0.02925006       2.51475573      -0.71676916       3.08731508
C        2.90518343       3.41389861       1.41004339       1.05809877       0.84238831       1.15127266       1.98946667      -0.40749210      -0.17103148
C        5.16253689       3.18649608       3.87035331      -0.16186613       0.18339654      -2.63034172      -0.24315453       1.14208221      -1.40442789
C        5.87690537       5.25174831       0.52313471       1.43509569      -1.32163968       0.45757275       0.75155950       1.63400519       1.93366981
C        4.01522898       1.38223277       2.53364964       0.42055384      -3.59418918      -1.29686181      -2.64593315       2.76661325      -0.97218513
C        4.84827584       4.41530788       0.54751695       0.51819317      -1.36925747       0.51893935      -0.10111818      -0.29043108      -2.27093935
C        0.17141453       3.10345001       4.35651535      -2.07555415      -1.56806083       1.43996268      -0.91399062      -2.54803467      -1.44431090
C        2.13653955       3.26322014       2.47302064       0.40207080       1.32903193      -0.30928013      -6.73224401       1.41913939       4.77279186
C        2.32327616       0.58454500       0.12442930       1.71580808       0.03942726       1.74561132       0.27171972      -0.13571967       1.95989323
C        5.44871811       4.93818051       5.68589159      -0.66577700      -0.45215024       0.15691983       0.81076956       0.50791591       0.01376539
C        3.74821841       1.30343706       4.89518475       0.52469950      -0.05934163      -0.25680489      -0.69283873       0.92587811       0.37912920
C        5.85800576       5.78351190       4.66269429       0.34799713       0.02858366      -0.46569839      -3.89251304      -1.91998470      -4.33041716
C        5.05760029       5.52756789       3.40787035      -0.60922271       1.93230726      -0.62464745       0.56069547       0.84458697      -0.71126240
C        1.17052007       3.42302239       3.31995309      -2.46907253       0.15881564       1.16013359       1.68602610      -1.18145370      -0.67419207
C        4.17070527       2.20312514       3.89360298      -0.53556230      -0.83435486       0.78331905       2.00567746      -2.88566875       0.25562251
C        4.79428365       4.18431787       2.90445713       1.09773851       2.14308558      -0.24020601       1.63409722       3.84730339       3.38346767
C        1.73704077       0.20127729       5.30328247       1.14776743       0.93795834       0.12609830       0.35088372       0.13520339      -1.78673196
C        0.03192086       1.83674075       5.01421462      -1.63690872      -2.36857222      -0.62397356       1.35994446      -1.18800783      -1.08375072
C        3.54066976       1.34171855       6.34584277      -3.26507231       0.31261367       0.32107343      -0.91506618       0.36028069      -0.38505462
C        2.77743141       6.96400153       2.80913450      -0.58778841       1.12639627       1.40998012      -1.90251088       0.37436914      -1.27881479
27
Lattice="6.403228 0.0 0.0 0.0 6.403228 0.0 0.0 0.0 6.403228" Properties=species:S:1:pos:R:3:momenta:R:3:forces:R:3 virial="26.379653532115288 -2.8806012487978325 9.10033438939633 -2.8806012487978325 29.382052443831384 -5.3396463792146145 9.10033438939633 -5.3396463792146145 19.280274427293133" config_type=Amorphous_Bulk pbc="T T T"
C        6.60223345       0.30843212       4.89707997      -1.13660275      -1.05473744      -0.40067215       2.86108160       2.03767157       1.23007679
C        0.74052879      -0.46820125       1.24184264      -0.27258862      -0.05383362       1.18590882      -3.62307882       1.82443857       2.75950241
C        4.28238607       4.11300383       1.59708002       1.68739004       0.72862582      -1.39944677      -3.50857258      -1.28158367      -2.30828047
C        5.87776854       0.30599974       1.35392771       2.72588546       0.54482471       0.15943734       0.04756069      -1.46227050       1.22953045
C        3.57558904       2.19219418       1.25924799       0.94747896      -1.04176296       0.87725058       0.28654978       3.37615800       4.00156021
C        2.52090813       0.76774991       4.23200063       0.56531519      -0.80002935      -1.17514412      -0.60920942      -1.47907782       2.16256022
C        4.94459843       6.70937477       2.45258676      -0.78788981       1.71079910       0.11943014       1.43571556       0.80854392       0.42330474
C        1.97746187       0.04589097       1.48933460      -1.95162498      -2.42138870      -1.55640675       4.55436659       2.70222950       2.06595993
C        2.87335953       3.53470018       1.59762424      -0.83614782       2.24662511      -3.49339977       3.77556443      -0.64331549      -0.75604719
C        5.16661653       3.32182670       3.69829882      -0.34225362      -1.70782829       0.35837247      -3.99831152      -1.93732619       0.03867686
C        6.14413741       5.21793392       0.76054350       0.95201746      -1.08397152      -0.87543619       3.76730466       2.10689378      -0.77874160
C        3.79804827       1.34881190       2.63086670      -0.72344216       0.04799788       1.31262078       2.64697433       0.92124754      -3.02801085
C        5.17909551       4.34874649       0.57950769      -0.96387738       0.67087789       0.59740865      -4.32883739      -3.43689966       0.72810936
C       -0.01827651       2.85530513       4.03438195       0.27147250       0.84638520       0.65313119       0.96687561      -2.58280659       1.67302263
C        2.10213514       3.62400382       2.70885612       2.04700372      -0.34220837      -0.69573390      -2.96545219      -0.94850004       1.44542122
C        2.52394130       0.62568681       0.30467617       0.44719213      -1.75991837      -0.82619397      -2.76490307      -2.55344343      -2.15744448
C        5.68268056       4.73537012       5.80515729      -0.29856679      -0.25096658       0.79400184      -0.19699170      -0.12281775       0.51463878
C        3.45213367       1.70437231       4.96076340      -0.17629965       1.43033689      -0.48088280       1.78646791       0.80839467      -0.97478271
C        5.74468890       5.60207586       4.79059090       1.90468221       0.85015990       1.31023464      -0.32619411       0.98843396      -3.56609488
C        5.18541063       5.52375082       3.44412400      -0.95095519      -0.36444277       2.12231643      -1.21107697       2.62760901      -1.00527143
C        1.14836281       3.26939539       3.46626012      -0.71112985       0.67481906       0.25506965       2.75380063       1.70713782      -2.26559663
C        4.12925756       2.32577573       3.95698870      -0.24258085       0.31643207       1.70524462       0.78990352      -2.02228761      -1.49979639
C        4.75120378       4.36585449       2.85934995       0.38388658      -0.66222319       0.48277381       2.82380176       1.26500440       3.39074683
C        1.76261686       0.37849326       5.32490800      -1.28124828       1.72797344      -0.90392504      -2.59836793      -1.11549950       0.49681133
C       -0.20336197       1.53207326       4.52940690      -0.31323004      -0.29568535      -1.38112696       0.35486305       0.41890168      -0.58140564
C        3.47765691       1.63246644       6.45389656      -1.79975113       0.07024490       0.27176179      -1.08598077      -2.50476575      -3.68606091
C        2.62725877       6.91764309       2.81266866       0.85586469      -0.02710546       0.98340566      -1.63385248       0.49792969       0.44761217
27
Lattice="6.403228 0.0 0.0 0.0 6.403228 0.0 0.0 0.0 6.403228" Properties=species:S:1:pos:R:3:momenta:R:3:forces:R:3 virial="26.379653532115288 -2.8806012487978325 9.10033438939633 -2.8806012487978325 29.382052443831384 -5.3396463792146145 9.10033438939633 -5.3396463792146145 19.280274427293133" config_type=Amorphous_Bulk pbc="T T T"
C        6.69571013       0.35778971       4.86379852      -1.05886074      -1.65006976       0.27320424       0.35481673       0.89692754       0.11227423
C        0.62743186      -0.38249097       1.61410205       2.05431505       1.08287895      -0.10498224       0.10451347      -2.41236734      -2.58296585
C        4.18974457       4.35745141       1.65108945      -0.54698495       0.87065265       1.77227168      -1.24831247      -1.07692766       0.60416389
C        6.24728706       0.49787247       2.15113656      -1.58009576       0.49323091       0.96630915      -5.93925810       1.52386570       1.84017420
C        3.61258662       2.05428021       1.13937736       1.57278998      -0.38978038       0.33832619       0.82042301       0.80318141      -0.61983764
C        2.54320437       0.45301435       4.28010173       2.66290996      -1.18387886       0.50149814       1.26152921       1.47551620      -2.67284274
C        4.86995561       6.89631748       2.63632280      -1.79631934      -2.36057771       0.35060169       4.22142458      -2.43100190       0.08672523
C        1.89388474       0.18335004       1.57510961       0.59148575       0.36124701      -2.64689637       1.64023268      -0.44097480      -0.87778431
C        3.10196263       3.36956253       1.50004503      -1.63062465      -0.31027517      -2.48533688       2.64471078       2.10124302      -1.17314017
C        4.95756104       3.38907409       3.83107234      -0.36518661      -1.52903937       0.05678703       0.59296966      -2.48590136      -0.47085464
C        6.66791493       4.84932068       0.66971783      -0.94559440       0.68108991       0.79603864      -2.41827393       1.05797505       1.83497906
C        3.77909009       1.36197579       2.41194025      -0.21123456      -1.67716550       0.82072365      -1.44692135      -0.28997940       2.31878948
C        5.20541331       4.46751934       0.75335609       0.42990965      -0.68369697       0.22545746       1.43080592       0.18692452      -0.29566222
C       -0.07499405       2.91364719       3.77587291       1.03422874       0.56531896      -1.11747418       1.65690291      -1.00672078       0.28149402
C        2.04149748       3.54618708       2.26545014       2.07883446      -0.62510430       0.28706288      -3.62419415      -0.14470613       3.12813330
C        2.34710876       0.41507818       0.09932427      -0.02491108      -0.53307417      -2.92676109       0.19315648      -0.22726968       4.82921886
C        5.73108562       4.90077679       5.99593002      -0.14369055      -0.10986866       1.08865846       0.92391038       1.13753033      -1.47906256
C        3.54790890       1.38412539       4.86362238      -0.37479967      -0.29076255       1.66169690       0.01674199       1.22594321       0.57776827
C        5.69626095       5.79203897       4.88251338       0.11711890       2.20822486      -0.21573041      -0.71992868      -0.72877306      -1.19751394
C        4.95544760       5.72953314       3.64757836      -0.56131045      -0.05467057       0.87944378      -0.87609243       1.09684360      -0.91171896
C        1.14391768       3.56522237       3.16433323      -1.50889045      -0.66859093      -2.12601170      -1.19104445      -1.30906308      -0.90761119
C        4.07314316       2.19236296       3.91342506      -2.84909312       0.32794784      -1.14383587       0.31321990       1.14292705      -1.31224489
C        4.59941177       4.58432587       3.02417095      -0.40105789       2.36697366       0.89398106       0.38741821      -1.05075514       1.71420479
C        1.69980804       0.07989292       5.27661656       1.07980103       1.82196511       0.18080610      -1.97866595       0.25748336       0.52581346
C        0.06128562       1.50895744       4.09993972       1.02079160       0.57130416      -0.21472412       0.31339410       1.28415561      -0.77170014
C        3.38892949       1.36818961       6.32624391       0.55292688       0.58804119       2.98103432      -0.67611670      -1.21652925      -0.90546978
C        2.44588203       7.00335497       2.82977951       0.80354224       0.12767967      -1.09214853       3.24263859       0.63045251      -1.67533028
27
Lattice="6.403228 0.0 0.0 0.0 6.403228 0.0 0.0 0.0 6.403228" Properties=species:S:1:pos:R:3:momenta:R:3:forces:R:3 virial="26.379653532115288 -2.8806012487978325 9.10033438939633 -2.8806012487978325 29.382052443831384 -5.3396463792146145 9.10033438939633 -5.3396463792146145 19.280274427293133" config_type=Amorphous_Bulk pbc="T T T"
C        6.75907905       0.23710783       4.79509172      -1.00367221      -0.90981296      -0.67582588      -0.21331498       0.24467984       2.67491007
C        0.70049503      -0.14231420       1.56769415       0.71338178      -2.35229596      -2.60868604      -6.54621696       0.25894576       3.17903471
C        4.18639098       4.27398121       1.89752960       1.33973093       0.64775088       0.05576912      -0.55633932      -0.81270349       1.37826049
C        6.33619062       0.54220352       2.51525474      -1.26605682      -0.78053700       0.23780340       0.36723885       1.14742899       1.17943001
C        3.76444155       2.00090831       1.05562374       0.43482102      -1.54176483       1.42121836       0.77451909       1.67172873       2.19812107
C        2.42363666       0.65644800       4.38938362       0.07693481       0.20769409      -0.99857901       3.97680449       1.24631810      -4.37997198
C        4.95221576       6.92606689       2.87363327       3.07224730       3.35146407      -0.72470401       0.27339548      -1.31380510       0.01344812
C        1.97920295       0.15924081       1.59386063      -1.77990792       0.32258715       0.63831517       3.14829159       0.16778511      -2.89988995
C        3.15157590       3.27920947       1.54338858       0.40248549       0.33533395      -2.41962102       2.83988094       1.43555582      -1.72790849
C        5.13563726       3.18457371       3.90022750       0.13519102      -0.67682383      -0.34659505      -0.70164937      -0.76558000      -1.86466587
C        6.23425924       5.48126649       0.87422686      -0.62428331      -0.01782343       1.19068966      -0.49668303      -1.52949870      -1.24249852
C        3.82161965       1.26799538       2.40557138       1.50269842      -0.28499800       0.10092990      -0.64115429       0.69849890      -0.66816580
C        5.04697961       4.80709301       0.98805586      -1.50428257       1.81589789       1.14101414      -0.85071683      -0.15029019       0.03449643
C       -0.06795546       2.66782634       3.48382474       1.17697816      -0.40946470       0.10382308       3.85183311       2.72182703      -0.19566184
C        1.85885498       3.41811738       1.76054318      -0.44893338       0.26579701      -2.21807837      -3.73148537      -0.11537622       3.15309572
C        2.43746907       0.36684130       0.19710706      -1.20860142      -0.29024742      -0.57690144      -1.13488483      -0.35343695       1.67327929
C        5.54214263       5.10156450       6.12265238      -0.79649502       0.57090623       0.75212939       1.21432447       1.12875628      -1.56033945
C        3.55659769       1.46604697       4.88379279      -0.38986355       0.26280767      -0.15808174      -2.04164100      -0.91708922      -2.51100159
C        5.72597475       5.74821454       4.85414456       0.15155959       0.09087355       0.00160358      -1.50189853      -0.54719001       1.04478872
C        4.89454040       5.71336773       3.67070214       0.55812365      -1.69533713      -0.10115923       0.88367081       0.76525277       2.93240499
C        0.82995431       3.38887418       2.54028547      -0.26938448       0.39398838      -0.36289511       0.76167828      -1.32282138      -0.18575369
C        4.31500382       1.95377318       3.72809410       0.80416089      -0.43258412       0.51671128      -2.28196001       0.70390338       2.98952961
C        4.67628810       4.49045556       3.30943205       0.47164900      -1.65678482      -0.76031496      -1.99800277      -4.23898363      -3.57710552
C        1.63436098       0.18848118       5.42288023       0.68965004       0.37149544      -0.22421285       0.11037634      -0.45416158      -0.99270213
C        0.24632540       1.27729898       3.86468369       0.61253948       1.30040749       3.27993990       0.31511557       0.02140814      -5.17477894
C        3.37967589       1.36735345       6.27780686      -0.69680032       0.33762557       1.51806288       1.71276021      -0.28820223       0.79147446
C        2.52748320       7.01673430       2.72647913      -2.15387056       0.77384484       1.21764486       2.46605921       0.59705085       3.73816991
27
Lattice="6.403228 0.0 0.0 0.0 6.403228 0.0 0.0 0.0 6.403228" Properties=species:S:1:pos:R:3:momenta:R:3:forces:R:3 virial="26.379653532115288 -2.8806012487978325 9.10033438939633 -2.8806012487978325 29.382052443831384 -5.3396463792146145 9.10033438939633 -5.3396463792146145 19.280274427293133" config_type=Amorphous_Bulk pbc="T T T"
C        6.71109524       0.26334177       4.97353271      -1.31951911      -2.02230028       1.04888948       0.63179076       1.63187957      -1.58348978
C        0.57331555      -0.16244854       1.68377675       1.15733220       1.62598840       0.69926176      -1.87664723       2.15459204       4.87204838
C        3.96741353       4.40898244       1.86182055       1.79487583      -0.40410874       0.96257790       1.29713213      -1.91800904      -0.15500963
C        6.34211292       0.58047086       2.72061425       2.89021833       1.30710258       1.61222543      -0.06409001      -0.57672799      -1.05396748
C        3.91137568       1.98270488       1.09758392      -0.91915627      -0.74772883      -1.20267696      -1.85913157       0.32983905      -2.17997217
C        2.26742661       0.78328954       4.21407557      -2.39984570       1.55841999       0.01581115       1.16922438       0.42704260      -0.11042826
C        4.89332701       6.74634368       2.81486350       1.57220875       0.11573414      -0.07384603       0.48549980       0.96767235       1.81841671
C        1.89100665       0.11664729       1.71382933       1.18644408       0.09713802       1.19658030       2.94063377      -0.07720381      -4.75934792
C        3.18798194       3.31271751       1.26428370      -0.42890088      -1.27304466       1.07178572       2.38301301       0.15602449       0.51168418
C        5.26615509       3.03985718       3.70360018      -1.57843563       0.33218414      -0.35995092      -0.62632936       0.24252123      -0.53798658
C        6.05273302       5.62240154       0.95203348       1.10807199       0.75226253      -0.86380757      -1.62436390      -1.51532578      -0.38348809
C        3.75824994       1.25487296       2.39908318      -0.63335589      -1.05798288      -0.42270671       3.42820573       0.08083653       1.22356296
C        4.66126130       5.18040013       0.97181938       1.12711968       0.21463845      -1.15240136       3.78152752       0.47460780      -1.38766479
C        0.16548328       2.68132839       3.55413710       0.89587566      -0.44215645      -0.17135025       2.81022859       1.86331177      -1.08987248
C        1.89961421       3.37546287       1.61100075       0.74997171      -0.96535253       0.44514489      -3.00292468      -0.23181771       3.46516848