125
Lattice="9.863761 0.0 0.0 0.0 9.863761 0.0 0.0 0.0 9.863761" Properties=species:S:1:pos:R:3:momenta:R:3:forces:R:3 virial="32.021587278102515 1.3076180739033294 -49.22579916792888 1.3076180739033294 -3.3930683909570147 9.746574996632223 -49.22579916792888 9.746574996632223 40.10913663095583" config_type=Amorphous_Bulk pbc="T T T"
C        2.20903000       1.39310000       3.14876000       0.63986965      -0.35359891      -0.05901883       3.69746113       0.43142402      -4.22558069
C        0.58885000       4.45220000       6.64136000       0.76855621      -0.16557913      -0.07415927       0.24978676       2.37894058      -0.29883000
C        1.86665000       5.10017000       9.07746000      -0.48078641       0.18854355      -0.47780581       1.43223763       0.34878075      -0.83213949
C        9.38587000       9.42193000       0.37917000      -0.45296124       0.28961813      -0.89568116      -1.49549460      -2.72749209      -0.83139586
C        7.95917000       7.05913000       7.22031000       0.38583004      -0.05559673      -0.32237065       0.33522999       1.73595917       0.82541674
C        0.35139000       3.90228000       0.72488000       0.41110676       1.04273421       0.17617164       0.59815198       1.22331512      -1.00891042
C        6.60391000       9.01279000       2.13964000      -0.16725200       0.20725878       0.05655300       1.89211833       0.26013333      -1.14207423
C        0.62848000       9.08018000       2.87728000      -0.07226526      -0.02126484      -0.37589869       0.51152033      -1.33214641       0.93176842
C        3.09560000       4.14510000       3.78523000      -0.65624824      -0.31057872      -0.45535498       3.09003639       0.61453426       1.47732723
C        5.46677000       4.57545000       0.81969000       0.40865173      -0.15946354       0.39417921       1.02006185      -1.51618779      -1.55555081
C        6.28407000       4.88877000       8.13497000       0.09905255       0.53281032       0.10125833       0.46903762      -0.73621917       0.70644003
C        8.54228000       8.34727000       6.79625000      -0.12413182      -0.77537466       0.79914501      -0.17624071       0.62297660      -0.84365380
C        8.70831000       6.41908000       3.94525000      -0.67631250      -0.27524330       0.28311138      -1.31194377      -0.93498075       1.20891821
C        8.52122000       1.79448000       9.85791000      -0.49954374      -0.17973567       0.39063619      -0.79136503      -3.67184925      -0.70190901
C        3.26116000       8.42681000       0.23594000       0.29488462      -0.18417467       0.10575369       0.24199060       0.86846995       2.00415206
C        9.82923000       1.39638000       2.03296000       1.32843705       0.18754607       0.76857033       2.76786017      -0.13977875      -0.99092120
C        4.11380000       4.04479000       2.65210000       0.54004662       1.24838971      -1.11664511       0.21677826       2.29579258       1.06256199
C        8.56930000       5.82276000       8.42998000      -1.29160733      -0.25909472       0.49129002      -0.74830556      -1.80413473      -0.54633582
C        6.36966000       2.36768000       1.73608000       0.00835404       0.02152494      -0.76552697       0.25158015      -0.43020117      -0.83096337
C        3.64461000       4.11547000       5.16034000       0.57246745       0.05950692      -0.19203811      -1.53467405      -0.48127466      -1.75215459
C        3.02546000       6.93959000       4.74523000      -0.50104098      -0.38114128      -0.23653308       0.86626667      -0.54214764       2.92270923
C        8.82587000       3.82464000       1.22613000       0.09833188      -0.06960061      -0.31555652       0.55779481      -2.15333080      -0.82563317
C        4.89017000       4.60742000       5.62565000      -0.57603026      -0.13422296       1.24706262      -1.28708422      -1.47646856       0.66992444
C        5.29791000       7.17905000       3.62968000      -0.01974585      -0.18525334       0.21532169       1.06486750      -0.22904605      -0.86879206
C        5.04520000       9.33507000       6.85220000       0.28675394       1.20410326       0.12325578      -1.62044537      -0.16704237       0.11861360
C        5.66415000       0.80657000       0.09453000      -0.14655016       0.00770216      -0.90412251      -1.05387592       1.02035832       2.89675236
C        1.37726000       2.76519000       0.83393000       0.16701992       0.19479749      -0.29299317       0.75512195       1.17937827       0.62917805
C        1.47618000       1.17878000       4.23345000       0.41851376      -0.27143757       0.99841329      -0.97005355      -2.49498034       2.48331881
C        1.99458000       9.64058000       6.62850000      -0.08535372       0.22737503       0.44173168       0.29957497       0.10668402      -0.31165740
C        5.07615000       5.09295000       9.30767000      -0.75755606      -0.20627814      -0.17374450       0.50135678      -0.85572737      -1.45294178
C        8.74942000       4.64828000       2.40868000      -0.29441447      -0.71910708      -0.05672306      -1.11973691       0.53558648       2.05137873
C        3.96063000       1.77304000       1.72565000      -0.12813715       0.53354058       0.14220496       2.00367022      -2.61565685       0.44370684
C        8.80968000       2.22033000       1.34242000       0.49388240      -0.96892217       0.31441056       0.10037711       0.03779808       2.18344927
C        1.97204000       6.55827000       5.67177000      -0.01841184       0.57980406       0.21709399       0.46588814      -0.74446106      -0.66481245
C        4.81699000       1.84809000       4.63819000      -0.43773544       1.05191895       0.54896783       2.22343159       0.20978622       1.34891915
C        5.94733000       5.95570000       7.12974000      -0.28687618       0.12779276       0.69385118      -0.76220214       0.18520004      -2.00318789
C        1.73156000       8.25881000       2.64696000       0.19994232      -1.26717139      -0.48398121      -0.22875148      -1.01029301      -0.76545775
C        6.94298000       2.31975000       3.06504000       0.33618300       0.31541907      -0.01275668       0.68885642       2.11486840       0.68174458
C        2.58894000       3.55843000       0.89763000       0.64488750       0.14327955      -0.47059851       2.47515726      -0.24971583      -0.41674620
C        7.28548000       9.69352000       8.74297000       0.15509998       0.40451666       1.35914233       0.55649275      -0.60972941       0.50299489
C        4.94111000       0.61728000       7.56464000      -0.32015628      -0.17420848       0.41090333      -1.63219953       1.17226899      -0.18797240
C        2.80472000       3.76057000       6.41319000       0.41161073      -0.14101174       0.44312913       1.96708333       0.14366746      -3.93926835
C        9.53907000       8.03178000       5.71948000      -0.76264371      -0.15875592       0.00664413      -0.79112202      -0.17560834       0.28644794
C        4.63109000       7.04433000       5.10755000       0.71260364      -0.12936381       0.12713149      -0.68448365       0.11626011      -2.65300918
C        5.72128000       2.46545000       5.56884000       0.51346279      -0.19156231      -0.54956076      -3.03912663      -1.47773993      -2.09690881
C        2.54836000       7.73354000       1.50370000      -0.75614287      -0.62560947      -1.40986435      -0.37103772       1.10960090      -0.40126336
C        2.35429000       9.24093000       9.20386000       0.17233238      -0.53604395       0.15909458      -1.34081352       1.39040828      -0.33981064
C        7.19317000       8.23923000       9.54866000      -0.49632406       1.19867808       0.31043422      -1.77580547       1.40032387       0.62864661
C        6.13592000       7.44645000       8.89962000       2.01819388       0.93203909      -0.86230741       1.51384628      -0.79254448      -1.82172811
C        5.21770000       3.48644000       6.59703000       0.00257689       0.32535981      -0.15273179       1.77494419      -1.09179521      -1.62357628
C        4.04943000       4.03567000       8.70636000       0.60574176       1.01965118       0.53715226      -1.35740066       1.29670060       1.95091164
C        8.28478000       5.93809000       2.62668000       0.56918511       0.28228681       0.69307727      -0.35377443       0.79628944      -1.62212825
C        1.79028000       4.14045000       3.53805000       0.11735091       0.08198407      -0.19004321      -4.58399773      -1.61273217       0.87151796
C        4.68784000       0.68270000       3.86517000      -0.38879297       0.05238160      -0.39083907      -1.83561182       2.04658604       2.84834003
C        7.79499000       2.71239000       9.09539000      -1.34860100       0.60172655      -0.09276670       0.31111294       0.73093933      -0.51804090
C        8.65823000       7.71487000       4.54266000      -0.02064284      -0.89245125      -0.73800950      -0.73887408      -1.37724221      -0.39866590
C        1.74017000       0.69263000       9.47236000       0.01869802       0.22249030       0.10685590      -2.14202166      -1.78658843       0.36001271
C        2.15962000       5.97996000       7.89103000       0.58499085       0.61886939      -0.61491129      -0.49756038      -1.20166922      -0.25508887
C        7.48404000       8.74094000       4.44808000       0.71117805       0.48389426       0.25198121       0.62893772      -2.86441040       2.47938919
C        0.66497000       4.95786000       9.72575000       0.38528818      -0.46252262       0.37938257      -2.43543339       0.66762149       1.10947096
C        7.36901000       9.00542000       6.05505000       0.34851276      -0.68650738      -0.27057979      -1.25410020      -0.42142785       1.15503597
C        7.59504000       3.13046000       3.97850000      -0.58770617       0.57582620      -0.58105400      -0.30942306       0.16334009       1.24026668
C        1.35517000       1.76937000       2.04276000       0.76411216      -0.08653073       0.62749852      -3.36710310       0.56075162      -0.84003413
C        0.64363000       9.74809000       4.27706000       0.11885596      -0.89131189       0.50235636       1.58866405       1.00082481      -0.95409620
C        9.37081000       1.67245000       5.28240000      -0.72846374      -0.00770377      -0.04452665      -0.07707724       0.04331115       0.47678283
C        7.96482000       0.04872000       3.93610000      -0.43283437      -0.05118019      -0.32624938       2.50151181       2.51612258      -2.05967379
C        1.00021000       7.55612000       5.76019000      -0.78669927       0.08938841       0.23189163       0.63014960      -0.57207322      -1.05419147
C        0.62419000       3.48969000       4.01512000      -0.89216106       0.00494071       0.23919296       1.12222707       1.09595823      -0.15297237
C        9.00465000       2.04919000       8.38818000       0.31634377       0.06807568      -0.04654843       2.76851988       1.81993377      -0.27869841
C        0.88214000       2.23875000       5.00030000       0.04203630      -0.43187819       0.52454237      -0.14508027       1.41950727      -0.79845959
C        6.40730000       3.49360000       0.81266000      -1.11828731       0.75754516       0.41724823      -1.58850992       3.87281895       0.21282648
C        3.25919000       6.80279000       2.34419000       0.32115428      -0.18336540       0.24752551       0.94101512       1.62921762      -1.38498855
C        6.13791000       8.46249000       3.50428000       0.27861259      -0.09654714       0.58339084      -0.26718298      -0.49084783       1.15915251
C        2.60378000       1.27255000       6.59995000      -1.83552740       0.09740976      -0.33752993       0.21116456      -1.96160865       1.71125126
C        9.34524000       5.16471000       6.05404000       0.64147200      -0.30515670      -0.56525417      -0.83765501      -0.14470777      -0.03935671
C        3.63450000       3.08264000       1.73136000       0.06783483       0.34520061      -0.18310570      -1.97760844       2.01822543      -1.94433796
C        8.96160000       6.89079000       0.55899000      -0.63140354      -0.40303302       0.11391824      -1.53806138       0.48325861       0.64693588
C        1.93236000       5.20313000       6.58788000      -0.23503262       0.31986737       0.35305702      -0.77991456       1.90846825       0.65345776
C        1.16035000       9.01043000       5.53036000       0.47668629      -0.62538271       0.48929238       0.98545730      -0.17382596       1.46206045
C        4.79290000       6.52634000       2.31060000      -0.02765118      -0.32231768      -0.03131257      -1.31018615      -0.31262702       0.57272863
C        4.89734000       6.70754000       9.47958000       0.55896002      -0.26696942       0.64212988       1.77342057       0.57806778       0.98825783
C        6.49064000       7.22761000       7.50309000      -0.78080019      -0.12258634       0.24625776      -1.20264316       0.27428505      -0.08716363
C        7.11622000       2.65853000       5.27274000      -0.29467747      -0.79286468      -0.84887208       2.30498409       0.72482502      -1.00291383
C        1.39384000       2.03993000       9.36882000      -0.71988134      -0.65087173       1.18542565       0.26360369       0.17459959      -0.75356460
C        5.21475000       9.31957000       4.29628000       0.70195750       0.02910875      -0.01922095      -0.16369352      -0.87964427       0.36388636
C        8.30993000       0.41130000       9.71003000       0.27605553      -0.38366391       0.47288014      -0.18296839       0.95553005      -1.29601264
C        3.60789000       7.42937000       9.15462000       0.54810386       0.11793912       0.04665169       1.14829636      -3.10578775      -0.72143185
C        2.65415000       7.26983000       3.48103000       0.38075983       0.20514895      -0.38200838      -1.96845937       1.33755076      -0.14215642
C        6.85875000       2.14721000       8.07251000      -0.28173149       0.01263662      -0.04394175      -0.59130877       2.37970805       1.18253744
C        8.01507000       1.44587000       7.28144000      -0.68219241       0.57236145      -0.07238782       1.11538565       0.78718901      -0.02722935
C        5.60922000       9.71389000       1.16899000      -0.69896506      -0.45484850      -0.32562900      -1.99054503       1.00550497       0.92489213
C        8.62725000       8.15043000       9.85317000      -0.69049708       0.14081024       0.99768231       2.30844712      -0.08415431      -0.67806166
C        9.20211000       0.56000000       4.50544000       1.16418417       0.77961900      -0.30036708      -1.07913435       0.73419559       1.05808043
C        4.86622000       5.03519000       2.01946000       0.16266877       0.95360220       0.62607627      -0.88584590      -0.43383557       1.54265928
C        9.43331000       9.77663000       1.99106000       1.21139995      -0.38380917      -0.13890811       0.91737664       0.23092626      -0.41059116
C        8.64262000       5.88884000       6.98887000       0.81785910       0.20938512      -0.53089315       0.72982752      -0.70109338       0.00246957
C        3.59360000       1.10696000       2.88694000      -0.25545838      -0.26807457      -0.76022455      -1.91984868      -0.13131851      -0.07842639
C        7.65377000       1.58646000       2.07483000       0.14239978       0.32029841       0.12067871      -0.29665804      -0.04797906      -0.93051147
C        8.17232000       2.16048000       5.97101000       0.94198878       0.06776992      -0.99731085       1.54275155      -1.49969959       1.49030876
C        5.31671000       1.44750000       1.32373000      -1.58821546       0.28628437      -0.13273550      -1.20064926      -1.32787704      -1.60610175
C        5.21182000       5.89040000       5.94509000      -0.19926780       0.43448500      -0.04060280       0.29311430       0.37268341       1.20444965
C        6.09668000       8.44025000       6.60182000       0.65426583      -0.49521804      -0.87269039       2.46105242      -0.24414426      -0.70333958
C        7.47656000       5.10336000       9.00391000       0.64576642      -0.05393600      -0.26538923      -0.31818625       1.47988367      -2.03256416
C        8.95949000       4.02492000       3.78013000       0.58832314       0.62331896       0.12755173       1.01376247      -1.25257063      -0.63564092
C        7.61022000       3.98940000       0.01784000      -0.45256955       0.26178865       1.05524972       1.64713955      -3.19903088       1.66006756
C        3.81510000       1.59515000       7.28517000       0.31405786      -1.01754306      -0.59257553      -1.61905694      -0.11674991       0.06894483
C        6.37482000       3.51459000       7.48096000      -0.54842235       0.01551424      -0.04358150      -1.63112748       0.31428325       0.46472406
C        9.00808000       5.19475000       4.67736000       0.83493873      -0.62559154      -0.16037850       0.38276762       2.25002623       0.86411595
C        5.98730000       0.94108000       8.63601000      -1.00757825      -0.43624970       0.73946200       1.69128942      -1.60839248      -3.10932541
C        0.58138000       2.38421000       8.24396000       0.43112039      -0.39601588       0.04469764      -3.53884745       0.71707273      -0.28041339
C        7.89369000       6.80280000       1.47064000       0.74700185       0.78002952       0.07290777       1.29188216      -0.78946131       2.40528607
C        2.72431000       7.28819000       8.06256000       0.56941775      -0.08710851       0.13796513       0.16196951      -0.05224678      -0.09257019
C        3.90273000       3.18368000       7.34898000      -0.31722610      -0.23463780       0.34849230       1.18850613       0.43196887       1.45918298
C        5.25091000       7.32476000       1.03304000       0.82694622       0.29308303      -0.39131478       1.10456014       0.78280985       1.92885709
C        5.02587000       8.48793000       5.57064000      -0.94098065      -0.69426929      -1.06141916      -1.72749805       1.03933680       0.16597015
C        1.83466000       2.56621000       6.19981000       0.31514788       0.10689952       0.61658905      -0.01224571      -0.12440860       0.48579550
C        6.83370000       7.86645000       1.21257000      -0.22129827      -0.53954174      -0.88270684      -1.40301394      -2.39782667      -0.37749884
C        2.41464000       8.72719000       7.77805000      -0.31569967       0.18034627      -0.22334320      -1.21569669       0.69083208      -1.67727840
C        7.96184000       9.71253000       7.32665000      -0.34505233       0.16210854       0.71077545      -0.68084526       0.99950922      -0.29495716
C        4.61608000       8.68865000       0.92926000      -0.77219681      -0.48693842      -0.55671352      -0.35919008      -0.49576396       0.16937169
C        7.89271000       0.09496000       2.42150000       0.50662538      -0.28642871      -1.27249648      -1.19653726       0.26045796       1.46465576
C        9.47434000       5.98715000       9.51123000      -0.54492073       0.66613492      -1.11812462       3.15454292      -0.55996639      -0.15594274
C        0.83535000       3.21400000       7.13215000       0.06157220       0.30441210       0.34726586       0.72507185      -3.28788280       1.33251405
C        0.88704000       9.49386000       9.62792000      -0.65924737      -0.35345685      -0.14034117       1.23038340       1.76484835       0.42687023
C        2.86259000       4.23600000       9.54616000      -0.49931670      -0.79297447       1.08031658       0.58785987      -0.13833722      -1.30079341
125
Lattice="9.863761 0.0 0.0 0.0 9.863761 0.0 0.0 0.0 9.863761" Properties=species:S:1:pos:R:3:momenta:R:3:forces:R:3 virial="32.021587278102515 1.3076180739033294 -49.22579916792888 1.3076180739033294 -3.3930683909570147 9.746574996632223 -49.22579916792888 9.746574996632223 40.10913663095583" config_type=Amorphous_Bulk pbc="T T T"
C        2.21054947       1.58661756       2.92217325       1.22391458       1.31168591      -0.67552575      -1.93600833      -0.29135609       0.71854275
C        0.70284649       4.67208018       6.57909910      -0.01340469       0.19332243      -1.06378585       0.23286203      -0.88907886       0.51854873
C        1.96301658       5.21492023       9.02380911       0.42851377       1.14039650      -0.40262641       1.56696141      -1.40321672      -0.32045370
C        9.27417984       9.08594602      -0.35342979       0.41473310      -0.11182158      -3.39139101      -0.17233200      -0.42680180       1.22123098
C        7.94035338       7.20364765       7.13312749      -0.83210211       0.26074855       0.33898152       0.46413043       1.93045604       0.62851763
C        0.54365239       4.02228375       0.77264910       1.09423125      -0.56387950       0.23688159       0.19683379      -1.22287071      -0.11306357
C        6.66307377       9.14555077       2.18214855       0.62447234      -0.83166182      -1.19469207      -0.82149410      -0.59734064       0.25171953
C        0.70241818       9.04172146       2.88504321       0.08462491       0.20974583      -0.36004678       0.16623065      -0.83228147       0.25974864
C        2.96746194       4.29535148       3.80313138       0.01813527      -0.52504768      -0.38822250      -0.55689371       0.12845051      -1.15494204
C        5.36740541       4.62298227       0.73154108       0.21692698      -0.93007180      -0.86864709       0.27084732      -1.42820942       0.89734155
C        6.41220455       4.83454646       8.09074516      -0.56445887      -0.74300898      -0.79534086      -0.14581797       1.08777177       0.64189357
C        8.48645183       8.52508479       6.65043048      -1.50658551       0.53149634      -0.15421564      -1.04107797      -0.90345955       0.27404484
C        8.27056541       6.16840996       4.05152708      -1.65842920       0.02070491       0.42659043       0.29803780      -0.97806895       0.82351553
C        8.50680006       1.59297431       9.77862655       0.95123514      -1.06137888       1.02113920       0.22705290       1.59782696       0.02685948
C        3.26907465       8.53932644       0.35486092       0.08190585       0.82310707       0.38562078       0.20195818      -0.91246974      -2.56980324
C        9.90667531       1.28760464       1.88305812       1.44249375       1.45777300       0.74432573       1.90587187       1.39496589      -0.23143694
C        3.88479776       4.40276721       2.59722342       0.01654288       0.82936698      -0.53674053      -0.56121081      -1.23126352      -0.02118450
C        8.83065895       5.38823293       8.50387145      -0.11022855       0.30226311       1.08919313       1.17410195       2.47746944      -0.38243169
C        6.48074620       2.41637506       1.72839199      -0.04203226      -0.47573249       0.15509114      -0.09314376       1.21087837       0.82051146
C        3.50768043       4.02435125       5.11467477       0.83224479       0.39630532      -0.65448225      -0.80746675      -1.27512550      -0.27273473
C        2.94896919       6.85481451       4.69239577      -0.46358732      -0.05847784       0.72183716      -0.42711127       0.37202156       1.78742743
C        8.96982684       3.72631196       1.21676701       0.39740910      -0.16163578       0.75156315       0.74154067      -0.76421702      -0.29525957
C        4.73483039       4.47172809       5.60976750      -0.37432424      -0.54200354       1.14843525       1.64991820       0.99050128       1.54727089
C        5.35723916       7.18378969       3.67993652      -0.16675378       0.43866877       0.11065849       0.74303979       0.98138928      -0.29345933
C        4.76491251       9.20989590       7.01829647       0.82428321      -0.07488712       1.25882365       0.03672940      -2.14864254      -1.91008270
C        5.39607180       0.76801651       0.06787096       1.43949940       1.31349312       0.93065884       0.79150152       1.32609415       1.79715824
C        1.54644958       2.87155986       0.75739340       0.27903284      -1.13061126      -0.32551754      -0.62934279       0.14691183      -0.07308874
C        1.56362382       1.12373444       4.09833017      -1.05942373       0.80188821       0.24266232       0.30053198       1.08734107       0.85540521
C        2.14761123       9.54108336       6.70326645       0.39496042      -0.63621834      -0.01340392      -1.23750901      -0.87679279      -0.54264218
C        5.15687216       5.10345741       9.20243908      -0.20742025      -0.23150738      -0.88495763       0.05176187       0.21864918      -1.33675051
C        8.86342008       4.52222903       2.49158938       0.38756969      -1.10485861      -0.95191578      -1.44170618       1.11622632       1.18217933
C        4.19377082       1.97492916       1.91138248       0.19367334       0.70239876       0.22047242      -0.07332352      -0.19602960      -0.29976544
C        8.86539477       2.13129380       1.28619034      -0.31354615       0.50224809      -0.34125423       0.94435298      -0.73884368       0.08786330
C        1.77276586       6.70594826       5.56531581      -1.01983067       1.12320023       0.11007763       1.22607493       1.05448294      -1.15169954
C        5.15495124       1.59774011       4.76211573       2.03882727      -1.15252605      -0.22033177      -1.58151317      -1.63900685      -2.49922013
C        5.99656836       5.94920361       6.95630440       0.49877301      -1.00500965      -0.02695286      -0.82824695      -0.82368910      -0.39558226
C        1.53033134       7.97702022       2.59233936       1.26509816       0.71800707      -0.63189930       0.41581851       1.13793886      -0.11449929
C        7.08025997       2.54840548       3.09011430       0.98992413      -0.73696974       0.57979620      -0.47819453      -0.72093832      -1.54379022
C        2.86238980       3.52250735       0.56296569       0.72142153      -1.12913246      -0.44210678       0.22526923      -1.54569101       1.06821108
C        7.20012898       9.64056356       8.66248884      -1.43138108      -0.43464791       0.54069930      -0.75206316       0.81071389       0.28856382
C        4.76108839       0.50021590       7.66230216      -0.42605862      -1.89397915       0.91577903       1.13635254       1.97581291       1.99093843
C        3.06850716       3.02624012       6.00319815       0.30366890      -0.83543752      -0.11713401       1.54121149       1.95958459       1.72177732
C        9.28691011       7.86606640       5.53640301      -0.91736426       2.28520208      -2.09877645       0.28972626       0.83163583       0.23709154
C        4.53280982       7.05060842       5.03786916      -0.23676609       0.17665555       0.81233012      -0.72028863      -3.00225544      -0.58049959
C        5.85628593       2.34697031       5.54048051       1.34614573       0.40060005       1.12628799       2.25281668       0.46848398       0.09944162
C        2.56047738       7.81767222       1.41686935       0.03577435       1.04274356      -0.40148548      -0.66745472      -0.13120376       1.45938134
C        2.17321613       9.19852012       9.24357453      -0.74463459       1.48446800      -0.38995264       0.73856366       1.82682514      -0.69197613
C        7.11582673       8.22361776       9.49529653       0.14043622       0.12399651      -0.67667731      -0.79798752      -1.10752845       0.01489905
C        6.17708545       7.28380924       8.85418412       0.22468214       1.07671139      -0.36043430       2.53979301       2.07467937      -2.22252798
C        5.32143064       3.34196389       6.49343731       0.54667466      -1.18659156      -0.21737768      -1.29911613      -0.05252284       0.24901265
C        4.04739175       4.32114044       8.39259726       0.45752474       0.02866375       0.12846750      -0.33361077      -1.11238885       1.70839977
C        8.15164756       5.75649689       2.69379799       0.22570959       0.24232237      -0.30089402       0.47502851      -0.15808119      -2.40616727
C        1.63116870       4.03695085       3.59540676      -1.81389714      -0.80096641       0.31334921       1.39588523      -0.04943448       0.41360325
C        4.41053673       0.71653793       3.98110968       0.06639614      -0.32719150      -0.16813866       0.50339222       1.77872443       2.17416453
C        7.71131879       2.67812724       9.14793353      -0.35841819       0.28429420      -0.74695497       1.65711045      -0.25316876       2.46038342
C        8.21757958       7.42899084       4.64952850      -0.11156938       0.10690363      -0.07531812       1.07129729       1.38013709       0.15677050
C        1.46542590       0.67604320       9.39717427      -0.19010678      -0.86718655      -1.00305757       0.86615175       3.03212500      -0.09010199
C        2.17944478       6.08052269       7.87103367      -0.09057720       0.47219595      -0.07443225       0.29514080       0.98026371      -0.88099486
C        7.38224921       8.73083355       4.58867587      -0.23454109       0.04987559      -0.29452693      -2.26290727      -0.95932281      -0.97289848
C        0.96323185       5.12847808       9.93396767       0.89760655       0.45449558       0.76261492      -4.32120323       1.85106564       0.31448561
C        7.13956266       9.20132759       6.07032077      -0.41051530      -0.82817411       0.10331536       0.30251670      -0.86540079       0.27246654
C        7.82591380       3.06989681       4.08838235      -0.04903741      -0.53322849       0.43258781      -0.81364715       0.28031984       1.47887504
C        1.33499041       1.93368104       1.86711117       0.72905120      -0.74621894      -0.53983630       0.03595823      -1.21767938       1.30939567