27
Lattice="5.525534 0.0 0.0 0.0 5.525534 0.0 0.0 0.0 5.525534" Properties=species:S:1:pos:R:3:momenta:R:3:forces:R:3 virial="-3.7407310762837427 -3.9468524469113166 -39.01351991975929 -3.9468524469113166 14.354223218366675 8.740173047719423 -39.01351991975929 8.740173047719423 -12.00222374162131" config_type=Amorphous_Bulk pbc="T T T"
C        1.43997000       1.73807000       1.70668000      -0.30261910       0.43876457      -0.33518030      -0.96101612      -0.45825344       1.49006402
C        1.07386000       0.67210000       3.95388000      -0.00808585      -0.75664742      -0.12930639       0.71847057       1.62019217      -0.96596611
C        4.08710000       0.75921000       4.39201000      -0.11772742      -0.31640664       0.63053711      -0.24446765      -0.63795090      -2.08210993
C        0.02086000       3.33953000       3.84400000      -0.89832572      -0.99929715       0.33380953       0.12125099      -0.35525960       2.71750045
C        2.01693000       1.87389000       4.35456000       0.37630288       0.14723250      -0.13032876       0.81640577       1.78069651       2.67047644
C        3.82838000       4.72720000       1.87588000       0.85250048       0.32182436       0.08494646      -0.10647359       1.16545892      -0.69911039
C        1.99787000       3.10237000       2.22889000       0.58588773      -0.31593602      -0.48797211      -0.20553406       1.26067281      -0.36980832
C        2.77372000       3.82055000       1.00145000       1.50328103       0.80749812      -0.40301755      -0.24808306      -0.54654992       2.60612726
C        3.72702000       2.91771000       0.25458000       0.08578079      -0.20547801       0.05193802      -0.48854440      -0.40337819      -2.08668065
C        0.46088000       4.96466000       0.44861000      -0.32262725      -0.13393047      -0.35644140      -1.05681896       0.09509704       0.93544668
C        5.30966000       4.23059000       1.60652000       0.49295228       0.88037428       0.20100481      -0.30044168       0.04127294      -0.14700478
C        3.60651000       0.58647000       1.24174000      -0.59974956       0.61255357       0.31160840       0.41137332       0.15614438      -1.97578359
C        4.88350000       2.74663000       1.14242000      -0.46663682      -1.03348746      -0.49761921       1.70354724      -1.98673010      -0.61972630
C        4.00837000       3.62848000       4.27212000      -0.63613031       0.23654846       0.18967768       1.01600277      -1.47277868      -2.02034521
C        4.67105000       1.47141000       2.04285000       0.50561150      -0.03373484       0.36598238       0.34254459       1.17247260      -0.05530077
C        1.10319000       2.87403000       5.00284000      -0.25762712       0.77783430       0.72478981      -2.47382331      -0.35941541      -2.49624562
C        2.92971000       2.69855000       3.42208000      -1.22210448       0.87872263      -0.63146737       0.40105855      -0.90374196       0.26157531
C        0.45615000       1.05257000       2.53566000      -0.38712534       0.09458731       0.09410416       0.82252628       0.83134598       2.20666289
C        2.60408000       0.93956000       2.13939000       0.19640652      -0.81934789       0.51495188      -0.66936535      -0.49623004      -1.31041074
C        3.20954000       1.43293000       5.37400000       1.02220458      -0.00614214       0.02697059       1.16947174      -0.34320784      -0.36504358
C        0.48993000       1.96802000       0.44518000      -1.25653608       0.05813226      -0.04221726       0.10018946       1.42077208      -0.31023371
C        3.49205000       4.96130000       3.65510000       0.23419913       0.37238784      -0.12582639      -0.14544462      -1.73178732       1.09365511
C        3.67098000       1.51524000       3.04987000       0.11223262      -0.17550525      -0.59279721      -0.82143748       1.30644870       2.66637039
C        0.06885000       0.63622000       5.11107000       0.30096990       0.17955706      -0.08977363       0.15649047      -0.11119111      -0.08619697
C        0.85562000       4.01951000       2.80956000       0.05964190      -0.11617789      -0.27675114      -0.51675212      -1.75920081       0.75459629
C        1.62881000       4.24675000       5.49058000      -0.56745308      -0.50505565       0.20398409       0.94268095       0.11462480      -1.64371431
C        1.89180000       4.90839000       3.95597000       0.71477680      -0.38887041       0.36439378      -0.48381084       0.60047591      -0.16879350
27
Lattice="5.525534 0.0 0.0 0.0 5.525534 0.0 0.0 0.0 5.525534" Properties=species:S:1:pos:R:3:momenta:R:3:forces:R:3 virial="-3.7407310762837427 -3.9468524469113166 -39.01351991975929 -3.9468524469113166 14.354223218366675 8.740173047719423 -39.01351991975929 8.740173047719423 -12.00222374162131" config_type=Amorphous_Bulk pbc="T T T"
C        1.37405805       1.95033829       1.84492960      -0.36071369       0.92337410      -0.59494509       0.80951285      -1.71598613      -1.13382113
C        1.12430122       0.78707816       4.06072426       0.52652811      -0.07706695       0.81819912       0.09957631      -1.31906247      -1.24013996
C        4.05950312       0.63914893       4.20078858      -0.11490817       0.41708336      -0.28283515      -1.45576477      -1.15669787       2.06817269
C        0.23904021       2.97580739       3.74415613       0.53822896       2.03483212       0.07388328      -2.32224488       0.85240877      -0.01016474
C        2.09060917       1.80765399       4.54708526       0.13471424      -0.38191781      -0.68114144       0.20807004       1.58233213      -0.81645185
C        3.82956065       4.78257473       1.80675563       0.84776109       0.75088122       0.20923665      -0.51459056      -1.19474065       0.68951344
C        2.05694150       3.25449154       2.14472392       0.76910944       0.14913132       0.80219171      -0.10494439      -3.29378080       3.04541373
C        2.81881463       3.78760221       1.00696252       0.57684174       0.68128792      -0.59080652       0.09522938       1.44843435      -1.29440391
C        3.75356195       2.86353650       0.14383525       0.27986419      -0.83809397      -0.95782906      -0.44602323      -0.54327190      -0.43010727
C        0.45145023       4.91528226       0.42610805       0.51092369      -0.29493725      -0.20984092      -0.70405704       1.20750356       0.86558819
C        5.26922729       4.33213257       1.62677551       0.19586234      -0.24412944       1.09515674       1.57256889      -1.88632751      -0.90700299
C        3.56575070       0.57918416       1.20009810      -1.21597604       0.63486005       0.86006115      -0.13770050       1.34216523      -0.72372168
C        4.82664323       2.70032305       1.09780606      -0.10474962       0.06956255      -0.33213966       2.38580561       0.44149995       1.12955546
C        3.97636933       3.40476636       4.14614278       0.16329339      -0.10515942      -0.80575652       1.74684584       2.55814481       1.27427816
C        4.58949269       1.49391916       2.04848225       0.17561334       0.42653966      -0.54653162       0.29306883       2.06701994       0.63425130
C        1.11573154       2.81730707       4.95904656      -0.50486725       0.14232010       0.10238701      -0.12517309       1.41856134       2.69720984
C        2.92585239       2.66888272       3.46979595       0.73165216      -0.28617447       0.09796808      -0.06539190      -1.86651993      -1.28560162
C        0.40633230       1.66648919       2.98298027       0.27404243      -2.41243024      -1.64180729       0.37074605      -0.80214393      -2.54626513
C        2.44628009       0.92714034       2.04757766      -1.21084495       0.47617216       1.41521661       0.64847380       0.61272097       0.75324559
C        3.30180554       1.30467075       5.34637284      -0.95539529      -0.14199001      -0.22654036      -0.03363976       0.79544044       0.02600068
C        0.50929436       2.06381155       0.54171814      -0.50699251      -1.05744428       0.59514601      -0.92575985      -1.13675177      -0.61160600
C        3.47244939       4.82006531       3.61480340       0.69037669       0.25162341       0.46007989       1.13072968       0.49139693      -0.66623473
C        3.56086979       1.47942504       3.05001844      -0.90116191       0.26270395       0.96599173      -1.12856865      -0.47005284      -1.21698022
C        0.16749630       0.64506787       5.19428233       0.67330221      -0.23660699      -0.08537280       0.05626437      -0.73555374       0.19626381
C        0.98566642       4.01234658       2.86774341       0.05229553      -1.66994636       0.10665684      -2.57430077       0.95741582      -0.96457762
C        1.63517442       4.23424713       5.42663167      -0.73994085       0.73075140      -0.72755106      -0.50502467      -0.54473817      -1.59892094
C        1.75411348       4.91864717       3.81114542      -0.52485924      -0.20522610       0.08092268       1.62629294       0.89058423       2.06650686
27
Lattice="5.525534 0.0 0.0 0.0 5.525534 0.0 0.0 0.0 5.525534" Properties=species:S:1:pos:R:3:momenta:R:3:forces:R:3 virial="-3.7407310762837427 -3.9468524469113166 -39.01351991975929 -3.9468524469113166 14.354223218366675 8.740173047719423 -39.01351991975929 8.740173047719423 -12.00222374162131" config_type=Amorphous_Bulk pbc="T T T"
C        1.43953116       1.85027042       1.77135816      -0.12336905       1.10665483      -0.35242741      -1.35126555       0.77864879       0.28855050
C        1.15663967       0.73603424       4.01636802      -0.78135898       0.73411744      -0.42186603      -0.88534927       1.59172440       0.91818130
C        4.08364672       0.62633420       4.23859599      -0.59772795      -1.58222969      -0.15792825      -1.17838609       0.45188260       0.79368389
C        0.18379986       3.02158558       3.80265983      -0.40245751       0.45180458       0.76731979      -0.51761770       0.31291518      -1.54685569
C        2.12140214       1.81773982       4.59441616       0.71694695      -0.78546152      -0.20674828      -1.44493866       0.82157856      -2.50558400
C        3.79971129       4.75998382       1.85529722       0.10376220       0.10377557       0.97496366       0.81992590       0.08527291      -1.05610394
C        2.06856139       3.17232671       2.23265369      -0.00774538       1.96706000      -1.00290531      -1.26015270      -0.07711202      -1.04779577
C        2.81912922       3.83176702       0.95373542       0.35557635      -0.19443468      -0.09491521      -0.80326045      -0.76282227       2.37001228
C        3.72278645       2.83283351       0.13913592       0.29873687       1.04527237       0.10261469       0.91364372       1.80180657       0.20967475
C        0.40213668       4.96592923       0.46484465      -0.65557008      -1.08891390      -0.34314129       0.47866163      -0.30896014      -0.61669302
C        5.33836735       4.24558174       1.63115623      -0.64479018      -0.66298446      -0.03849869      -1.96166861       1.03198481       0.21302654
C        3.56845209       0.59664350       1.17514307      -1.16915816       0.24116265      -0.89153024       1.84408367      -0.02637832      -0.78042877
C        4.83776125       2.72157063       1.11726055       0.13960997      -0.75725087      -1.00818145       2.23720860       0.25826293      -0.23214999
C        3.92975813       3.48811475       4.12535595       1.42773648      -0.78364421      -0.20074328       2.01910281      -0.84970188       1.67746866
C        4.69108568       1.57338810       2.07242011      -0.29053358       0.52031002       0.53186951      -3.08291769      -0.93595541       1.06465936
C        1.16812530       2.85729367       5.05871757      -0.11083413      -0.25390652      -0.64410779      -2.98370314      -0.49024859      -1.54288208
C        2.90160948       2.61780218       3.45551152       0.78255386       1.34696051       1.50211970       0.43178540       1.51525009       0.43859810
C        0.47249915       1.58057606       2.87183863      -0.02079583       0.52187183      -0.42760669      -0.91847038       0.91660595       1.01147676
C        2.50427850       0.92272009       2.00011767      -0.05746732       0.25059209      -0.75891823       0.63688642       0.17327480       1.17477179
C        3.32659823       1.29885626       5.33745218      -0.54404370      -2.11545129      -0.04966712      -0.34720850       1.14864278       0.47158849
C        0.47345935       2.03345940       0.52296167       0.62494510       0.29768095       0.38828109       0.89346361      -0.66697216      -0.57750636
C        3.43860385       4.89988807       3.64952140       0.12014240      -0.53503837      -0.63924299       1.07054245      -2.54977679      -0.85435879
C        3.54272387       1.48013361       3.00390839       1.00104576      -0.26680275       1.45144277       1.78445339      -0.98388219      -0.10439774
C        0.09515486       0.62100349       5.14989367      -0.21979311       0.10856710      -0.33601810       0.66850394       0.38194719      -0.78106725
C        0.89339776       4.06708891       2.83752190       0.41583033       0.14977109       1.06489258       0.44212928      -2.78354263       0.78531528
C        1.54090411       4.28656807       5.41032192      -0.96597420       0.57199865       0.06690423       2.29918122      -1.05559766      -0.39976376
C        1.78626647       4.92644691       3.86932248       0.60473291      -0.39148140       0.72403835       0.19536793       0.22115338       0.62857956
27
Lattice="5.525534 0.0 0.0 0.0 5.525534 0.0 0.0 0.0 5.525534" Properties=species:S:1:pos:R:3:momenta:R:3:forces:R:3 virial="-3.7407310762837427 -3.9468524469113166 -39.01351991975929 -3.9468524469113166 14.354223218366675 8.740173047719423 -39.01351991975929 8.740173047719423 -12.00222374162131" config_type=Amorphous_Bulk pbc="T T T"
C        1.41749116       1.72130655       1.74755566      -0.02460079      -0.06770240      -0.39435608      -1.27376866       1.03883696       0.85584074
C        1.12084394       0.75774652       4.06527429      -0.97426215       0.25030753      -0.07245519      -0.50098205       0.30252248      -1.09410346
C        4.10477951       0.71838241       4.35413765      -0.07431358      -1.51280834      -0.73640253      -1.90029895      -1.31296134      -0.79553908
C        0.15910268       3.00836240       3.73228794       0.14837082      -0.82502253      -0.08123877      -1.22348595       0.34986982       0.45247316
C        2.02255342       1.85379922       4.56198069       0.44670488       0.70404774      -1.58073528       2.15031385       1.05851471      -1.37810528
C        3.90344670       4.76038851       1.76819051      -0.74686661      -0.63043558       0.51149752      -2.12396383       0.11210379       1.46478987
C        1.99364177       3.04520782       2.09489374       0.43879797      -0.77454469       0.68840434       1.95758951       3.08687901       2.83586621
C        2.82850850       3.86755526       1.00638007       0.14832676       0.96215593      -0.61081134      -0.12220901      -2.76167226      -1.24055183
C        3.81023355       2.95264456       0.11819774       0.86404588      -0.49354917      -0.58452778      -1.74383664      -0.81192899       0.80646443
C        0.48723235       5.01350784       0.47984803       0.38458119      -0.80984572       0.65958032       0.03564650      -1.68305600      -0.53324771
C        5.31357046       4.26018872       1.61784354       0.42656442      -0.06668213      -0.08376051       1.75764477      -0.30809370      -0.60803741
C        3.60264787       0.58372055       1.21435274       0.83865267      -0.11656990       0.95900851       1.22078919       1.48161066      -1.27206814
C        4.89567267       2.72085426       1.10416564       0.44301175       0.45846364       0.43023618       0.24509910       0.46904767       0.24081677
C        3.97483838       3.60935552       4.16002404       0.76659369      -0.53584686       1.25412858       0.69804305      -4.10209894      -0.63929623
C        4.59332177       1.57891057       2.08627904       0.59366627       0.00753879      -1.08629788      -0.26562294      -0.93062651       0.37437069
C        1.07141546       2.87969586       4.98657012      -0.07293029       1.03862667      -0.05912698      -0.35020638      -1.08133018       0.84809041
C        2.82983739       2.64596040       3.44071981      -0.08492247      -0.60384809       0.15159798       2.50923538      -1.02889967       0.12367091
C        0.39845243       1.56803221       2.89451386      -0.72443142       1.74812359      -0.30939212       0.40177882      -0.14052916      -0.33213905
C        2.51395811       0.80908227       2.05794630       0.60065641       2.23326210       0.34044224      -0.67023730       0.77795678       1.40276098
C        3.28105794       1.34264035       5.39603731      -0.66446887       0.28435380      -0.40068952       0.22441417       2.25469184      -0.59960890
C        0.50110137       1.95513615       0.51962505      -0.69785155      -0.19298997      -0.63431633      -0.77318436       1.42351723      -1.01659870
C        3.44157186       4.92994317       3.61000224       0.14583456      -0.47804456      -1.39086459       1.93503070      -1.40615964       0.78953207
C        3.55880725       1.42965638       3.10224980      -0.20287236      -0.79711427      -0.56387977      -0.56924701       3.19410086      -0.62163496
C        0.12455703       0.66662972       5.18820212      -0.09838848       0.28612535       1.16450464      -0.09625387      -0.57068712      -0.62939751
C        0.89138915       3.92594752       2.80893585      -0.79257944       0.60382546       0.79277155      -0.05757546       1.59044468      -0.36464116
C        1.61106552       4.26698688       5.34521679      -0.86673503       0.34424026       0.79288777      -0.45356393       0.42452356       1.68261313
C        1.85529176       4.96029839       3.89605943      -0.22058424      -1.01606662       0.84379504      -1.01114964      -1.42657650      -0.75232017
27
Lattice="5.525534 0.0 0.0 0.0 5.525534 0.0 0.0 0.0 5.525534" Properties=species:S:1:pos:R:3:momenta:R:3:forces:R:3 virial="-3.7407310762837427 -3.9468524469113166 -39.01351991975929 -3.9468524469113166 14.354223218366675 8.740173047719423 -39.01351991975929 8.740173047719423 -12.00222374162131" config_type=Amorphous_Bulk pbc="T T T"
C        1.36416043       1.76811150       1.80299060       0.41536258       0.22435963       1.98242126      -0.05983323       1.50269413       0.59940094
C        1.16727889       0.76471486       4.08665422      -0.13977269       0.50129423       0.18161823      -0.41040120       0.96316981       0.01677051
C        4.08260024       0.73052107       4.24315162      -0.84386857       0.24980213      -0.61140749      -1.60268068      -1.14688957      -0.91269064
C        0.08616688       3.04003203       3.79121139      -1.24122677       0.12088551      -0.11494023       1.16464579      -1.05858123      -0.93125451
C        2.10686554       1.89537389       4.54092531       0.38769047       0.37611572      -0.29082474      -1.01107144       0.33703887      -0.99317855
C        3.81270821       4.71615982       1.74225748       0.66802894      -1.16185029       0.53561347       0.34161901       0.91053164       1.21899021
C        1.98786311       3.12938891       2.17085160      -0.27243729      -0.58875674      -0.55563622       0.59142250      -0.40688762       1.43914366
C        2.79743848       3.71383867       0.99624331      -0.59245719      -1.28036904      -0.14749194      -0.29621053       2.90189958       0.62755537
C        3.75843504       2.93473875       0.18638183      -0.62558393      -0.00966514      -0.18724699       0.19768073      -2.46379805      -1.72786498
C        0.45293024       4.96652502       0.42149881       0.81733514      -0.20019998       0.37362946       1.76097083      -1.81808150       1.26112628
C        5.35970580       4.20624454       1.60314978      -0.45535566      -1.16554720       0.79156215      -1.61555374       1.10294700      -0.90152246
C        3.57039329       0.60592839       1.11180099       1.51798259       1.85366436       0.92697318       0.08117040       0.19787021       2.39860177
C        4.87447611       2.70720054       1.09390838      -0.30847517       0.50398150      -0.91661233       1.17881918       0.31039405       0.84722447
C        3.92825021       3.41761089       4.17076432       1.51445898       0.02808313      -1.07377511       3.73008919       4.41884708       0.56345564
C        4.60947899       1.52092212       2.06169848       0.24288995       1.53686119      -0.66529594      -1.57952452       1.08585048       0.64233798
C        1.12025547       2.87223263       5.00345313      -1.67369233       1.01797499      -0.72652988      -2.00253320      -0.69288951       0.17922583
C        2.89341937       2.70866456       3.48005864      -0.13003805      -0.03288882      -1.65478729      -1.26816499      -2.44635201      -1.75541341
C        0.35517511       1.58021119       2.96084755      -0.58739611      -1.14422352      -0.20238458       1.28338325      -0.08590084      -1.23349333
C        2.47950193       0.87270167       2.04537418       0.26354720      -0.35040803       1.15774587       1.28869164       0.81596428       0.23802173
C        3.34692951       1.43860455       5.33389577       0.69476057       1.16446433       0.95791250      -0.96705765      -1.36032009       0.54325372
C        0.44688267       1.95536037       0.48295476      -0.53572846      -0.42043640      -0.47559417       2.14484763       2.30335331       1.51621771
C        3.50823526       4.86381981       3.55221908       0.82834781      -1.40123006       0.65636483      -0.16164351       0.45419115       1.39876854
C        3.53719599       1.55566533       3.05190843       0.60016261       0.10975198       1.08418369       0.70155406      -3.57902908      -2.53079891
C        0.25101591       0.68870809       5.30542844      -0.84723511      -0.01753917      -0.81951383      -0.35263079      -1.87521148      -2.49700785
C        0.89211796       3.98173892       2.80924924       0.66080594      -0.47328930      -0.25373667      -1.15625191       0.75627595       1.04984593
C        1.68217893       4.23487452       5.37722163       0.96039483      -0.77689294       0.77682251      -2.64280152       0.42985490       0.72656512
C        1.83473045       4.96204738       3.93139101      -1.31850027       1.33605793      -0.72906979       0.66146481      -1.55694151      -1.78328347
27
Lattice="5.525534 0.0 0.0 0.0 5.525534 0.0 0.0 0.0 5.525534" Properties=species:S:1:pos:R:3:momenta:R:3:forces:R:3 virial="-3.7407310762837427 -3.9468524469113166 -39.01351991975929 -3.9468524469113166 14.354223218366675 8.740173047719423 -39.01351991975929 8.740173047719423 -12.00222374162131" config_type=Amorphous_Bulk pbc="T T T"
C        1.32077440       1.86342580       1.77824261       0.56827139      -1.56011328      -0.53571027       2.77951074      -0.05612868       0.53722024
C        1.18098579       0.80534391       4.07047789       0.77999402      -0.76562686      -0.45661848      -0.66579938      -0.67773932      -1.93775535
C        4.09289879       0.66224083       4.23664162      -0.26091625      -0.43780677      -0.24412181      -0.60543054      -1.50681281       1.79289401
C        0.17881469       3.03285962       3.71129155      -0.87999481       1.46470152      -0.35066781      -1.67229569       0.00613841       1.81778634
C        2.10465982       1.89648612       4.56475395       0.96357570       1.76617845      -1.13564077      -0.79499000      -0.81932175      -1.09747231
C        3.85349020       4.74712322       1.85432370      -0.27481842       0.81530427       0.69766814      -0.27787858      -0.38978589      -0.61001164
C        2.00468401       3.14816785       2.28501263      -0.89944579      -0.39986200       2.36612225       1.01289129       0.32808051      -1.77754450
C        2.77294349       3.78309658       1.05284220      -1.93007247      -0.88701419       0.65496678       0.60039306       0.05900528       0.06500334
C        3.74647764       2.82473489       0.18179268       0.85170861       0.11958680      -1.52470680      -0.16867489       2.54011869       0.14563051
C        0.37517366       4.90218227       0.34823961      -0.32600303       0.66154329      -0.17286825       1.09378064       0.83134925      -0.45703119
C        5.36063415       4.27080838       1.54684050      -2.28957207      -1.61339643      -0.97836354      -2.46372366       0.02555984       2.00657511
C        3.60001528       0.57323702       1.19580835       1.90154951      -0.84433075       0.48201389      -0.29258245       1.26845729      -0.52171075
C        4.84256398       2.75071898       1.13338355       0.27363107       1.36874066      -0.75379107       1.52284837      -0.41553271      -0.26951861
C        3.99914025       3.44786782       4.19875467       0.35704970      -1.00472509      -1.50351490       0.93014055      -0.31605962      -0.38020211
C        4.67984213       1.55306445       2.04619406      -0.28720324      -0.41129460       1.13804296      -3.28820252      -0.81605691       1.78454840
C        1.07352835       2.86939725       4.96198209      -0.90766069       1.25067145       0.75975284       0.12750337      -0.08439526       1.22089827
C        2.92329587       2.57582068       3.48192180       1.21270854       2.46652527       1.35737281       0.80481851       1.47923040      -0.72291327
C        0.40661259       1.62162664       2.90474297      -0.54809429       0.59651339       0.18267563       0.67196655       0.37477618      -0.57281417
C        2.48077196       0.93879823       2.06087784       0.55262982      -1.64080269      -0.50191482       0.74844444      -1.50386643      -1.64166415
C        3.32890911       1.41557883       5.35185813      -1.07897126       0.08776424      -1.51150822      -0.76141602      -1.95860982       0.55466819
C        0.40766404       2.05463305       0.48701012       0.31898830      -0.16194228       0.67069117       2.27035809      -0.98998469      -0.87245524
C        3.52123381       4.82727638       3.71254459       0.98832933       0.70366490       0.09400695       0.16833353      -0.02930331      -1.75224173
C        3.58557489       1.39233112       2.99539641       0.13135974       1.00293188      -0.35629736      -1.18994713       3.61056423       1.53662157
C        0.04783760       0.61053652       5.03060699       0.81464469      -2.22210692       1.39238538       0.62974912      -0.08435954       1.73311996
C        0.93256872       4.05992602       2.91133156      -1.00535799      -0.02926545       0.36097709       0.00528565      -0.84905642      -2.27956247
C        1.62213491       4.24629308       5.38631327       0.07172817      -1.06140358      -0.22000733      -0.89178425       0.29872578       0.27087361
C        1.86315988       4.95836448       3.86830465       0.90194175       0.73556479       0.08905549      -0.29329848      -0.32499236       1.42705667
27
Lattice="5.525534 0.0 0.0 0.0 5.525534 0.0 0.0 0.0 5.525534" Properties=species:S:1:pos:R:3:momenta:R:3:forces:R:3 virial="-3.7407310762837427 -3.9468524469113166 -39.01351991975929 -3.9468524469113166 14.354223218366675 8.740173047719423 -39.01351991975929 8.740173047719423 -12.00222374162131" config_type=Amorphous_Bulk pbc="T T T"
C        1.41474879       1.86637648       1.82275013       0.55561349       1.11828025       0.53739185      -0.27126426       0.50450474      -0.92009413
C        1.10070727       0.80032814       4.03250451       0.22791049       0.47367303      -0.60217730       0.96335673      -2.43634462      -0.43940639
C        3.94049113       0.51748476       4.33354880       0.56270150      -0.64522934       0.19113362       2.20354581       3.45209742      -1.34902215
C        0.13714496       2.96667277       3.72867028      -0.80622820       1.86771504      -0.33171600      -0.42596519       1.90561652      -0.60027528
C        2.03757206       1.84544668       4.50835090       0.41337747       0.00922290      -0.77627229       0.81868410       1.68028796      -0.06537412
C        3.84843501       4.78461697       1.78407726      -1.38337429      -0.65177339       0.43027367      -0.11700643       0.71720648      -0.18911505
C        2.12483765       3.15014945       2.27909741      -0.25593315      -0.15089139      -1.06688796      -2.84939742      -0.10815901      -2.47338915
C        2.79659690       3.78687799       1.06021520       0.32838343      -0.48618998       1.43824062       1.29544926       0.29999843      -1.70581555
C        3.73983836       2.95163429       0.13071456      -0.14003051       0.14178361       0.52879948       1.24935639      -1.47624564       1.19782043
C        0.61583310       4.94839651       0.53453764      -1.30171368       0.90314710      -0.60656654      -2.10718250       3.06139445      -3.64288664
C        5.38038273       4.37586623       1.58274825      -0.03712207      -0.66015287       0.09077104      -0.86718768      -2.75400877       2.77261209
C        3.57643473       0.65057660       1.12468761       1.96991914       0.36507051       0.20028343       0.38635832      -0.12107432       2.11587191
C        4.85661318       2.80901832       1.13867848      -0.34581290      -0.64569424      -0.91441434       1.34619081      -0.96687305      -1.08251774
C        4.09439119       3.52760545       4.16388725       1.83281826       1.82450743       0.39174106      -2.53442812      -3.36267424      -0.20285575
C        4.62090716       1.59991989       2.02930942      -0.77080500       2.00653455       0.04164721      -2.15260959      -1.78374219       2.43058920