64
Lattice="7.605088 0.0 0.0 0.0 7.605088 0.0 0.0 0.0 7.605088" Properties=species:S:1:pos:R:3:momenta:R:3:forces:R:3 virial="17.166598152555693 5.991147713396794 -33.39090528862955 5.991147713396794 41.228166781458995 3.125136537892319 -33.39090528862955 3.125136537892319 -19.953289831841346" config_type=Amorphous_Bulk pbc="T T T"
C        6.01781000       0.87688000       7.21954000       0.26823926       0.54441022       1.02160373       0.66910315       0.23920926      -0.59696454
C        6.44267000       0.20465000       0.91457000      -0.60016920       0.30452355       0.38961060      -0.04312253       0.31701899       0.00541964
C        5.70583000       5.02767000       6.86702000       0.31165928       0.40725692       0.39173462       0.26541045       0.37511033       0.53631675
C        0.83240000       2.30303000       7.13280000       0.62353936      -0.23066721       0.44837987      -0.40368536      -0.42363638       0.09187227
C        2.12848000       5.78305000       2.01256000      -0.33025425       0.35127479      -0.18694939       0.21092534       1.02172136      -0.00697839
C        0.07369000       3.37940000       1.82439000      -0.77413090      -0.27606397      -0.57888409       0.52534038       0.52103186       0.91544145
C        5.10089000       1.14323000       4.09875000       0.21819713      -0.42240486       0.41854717      -0.10279313      -0.08071119       0.69347763
C        7.33984000       0.33984000       3.65872000       0.53065294      -0.30680634      -0.37264360       0.87872875       1.06661141       0.10504636
C        5.38138000       7.51880000       4.96896000       0.36265770      -0.78286520       0.14061809      -1.18091726       0.44209373       0.70136124
C        2.42945000       7.13928000       2.10034000      -0.54195422      -0.51943400      -0.15940591      -0.19212645      -2.32139635      -0.72253424
C        7.42916000       4.19476000       3.94711000      -0.58657034      -0.21080073       0.16347893      -0.53102398       0.06598353      -0.53397495
C        3.63769000       5.82465000       4.82493000      -0.58441946      -0.16618035      -0.78830397      -1.34960055       0.88574469      -0.19934630
C        4.81688000       5.99917000       0.10615000       0.34880501      -0.05303205      -0.04970792      -0.99494660      -0.31268704      -0.05946830
C        1.22033000       4.63880000       0.19096000      -0.77688145      -0.41181418       0.78121043      -0.62409228       0.28590772       0.60446334
C        2.37686000       1.69691000       5.39405000       0.54719425      -1.13932322      -0.15506948       0.23938414       0.54550385      -1.03556478
C        1.01796000       2.56951000       2.76054000      -0.74624194      -0.38259105      -1.49101659      -0.72399032       0.63000894       0.79531324
C        2.94130000       2.97920000       5.44366000       0.15012507      -0.52338182       0.64695237       0.04602128       0.34123206       0.33990419
C        3.13063000       0.61190000       5.93689000      -0.21508850       0.07433362      -0.47891241       0.91988283      -0.58572972      -1.16554856
C        2.39912000       5.19418000       4.62844000      -0.35281466      -0.14913630       0.12246208       0.77535707       1.17145944       0.31478888
C        5.41659000       6.76654000       1.15741000       0.27956250      -0.20464497       0.54876026      -1.25879371      -0.00764161       0.61539865
C        1.25171000       5.67705000       5.19710000      -0.02738721      -0.53754542      -0.98448491      -0.31225252       1.09011102       0.18607089
C        2.72070000       0.48944000       7.25728000       0.65625391       0.17298006      -0.06354739       0.16587400       0.48128682       0.21348810
C        6.73058000       1.30532000       1.89236000       0.06774997      -1.25467793      -0.86670743      -0.06437467       0.60539699       0.21786800
C        6.02875000       2.18998000       4.61201000       0.99988826      -0.44957000       0.01674118       0.05341078       1.12258732      -0.46642658
C        5.57042000       2.79864000       5.84022000      -0.30748094       0.26607801      -0.54923944      -0.60212803      -0.18253410       0.68735695
C        4.97148000       4.18100000       3.44544000       1.05352249      -0.22884120      -0.79114216      -0.38393196       0.05097426       0.72546577
C        7.54511000       5.16290000       5.04417000       0.59699775       0.11917885       0.85145711      -1.17595291       0.42598683       0.88727486
C        3.56889000       3.59246000       6.76651000      -0.22451091       0.03217179      -0.38953620       0.40524834      -0.42539555      -0.88458079
C        7.56382000       6.83669000       6.71287000      -0.48920383       0.27515253       0.56722986       0.86785460      -0.99254072       0.23155129
C        4.00685000       7.11673000       5.35902000       0.68397840       0.06173413       1.23184252      -0.13112125      -0.74628794      -0.59360909
C        1.26194000       0.35602000       1.48801000       0.44708861       0.56541991       0.05511875       0.79192257       0.94511878      -0.10280055
C        0.07048000       4.75512000       2.41586000      -0.35172423      -0.77011002      -0.23631738      -0.65930623      -1.31851888      -0.74023861
C        2.98214000       4.45988000       1.82506000       0.59486920       0.55025231       0.03325429      -0.39654723       0.64324927       1.16767979
C        2.33211000       3.77267000       4.30381000      -1.72077942      -0.07961527      -0.59042341      -0.57391036      -1.33184171      -0.37358105
C        3.67347000       7.51899000       2.61663000       0.33695805       1.22973167      -0.14134622       0.43648005       0.34789217       0.56563580
C        0.22957000       3.51671000       0.27889000      -0.52494305       0.59972418       0.71376786       0.06176293      -0.35861769      -0.35480982
C        3.37811000       5.78759000       7.53927000       0.03372839       0.29355959      -0.11912113       0.53154194       1.12838960      -0.34581959
C        4.60339000       4.79645000       4.61948000      -0.33771455      -0.36876571       0.65018318       1.02627015      -0.52882481       0.44329843
C        6.81855000       5.63462000       6.14178000       0.95056198       0.42478616       0.01873929       0.87200904      -0.09676500      -0.13797322
C        0.90766000       3.14539000       4.24165000      -0.19438676       0.43818498       0.49003459      -0.24704081       0.18120924      -0.11676170
C        0.87298000       2.03145000       5.47436000       0.80611803      -0.25743536       1.05327703      -0.15399481       0.24000323       0.05970210
C        0.44785000       1.10430000       2.51376000      -0.46109966       0.80052594       0.16362708       0.11798292       0.17503145      -0.23710191
C        1.31965000       6.57709000       6.24733000      -0.42112821      -0.85228922      -0.89069815      -0.32655194      -0.81243861      -0.07737201
C        0.77847000       5.62012000       1.35873000       0.21463042       0.41840773      -0.76146565       0.20988315      -0.57784033       0.21486324
C        3.20735000       1.97174000       1.01210000      -0.62628775      -0.39440980       0.45541109       0.36380517      -0.57749254       0.44210997
C        3.31175000       2.14767000       2.46073000       0.38357612       0.40554084      -0.20752585      -0.12375493       0.52814043      -0.45942605
C        4.45590000       4.27648000       2.15935000      -0.98531558       0.59619991       0.49806850      -0.11520559       0.39671314      -0.91269296
C        4.88269000       4.12489000       5.92707000      -0.25085367       0.42275403      -0.66498199       0.35042724       0.27767000       0.64724660
C        6.15075000       3.30718000       3.58175000       0.13481315      -0.23219768       0.91589411       0.87236387      -0.34815219      -0.75898808
C        7.27562000       1.23008000       4.97338000      -0.05830597       0.81018162      -0.22926596       0.06026891      -0.95530879      -0.35252097
C        3.92849000       1.18852000       3.24246000      -0.50471609       0.49352343      -0.13387236      -0.05373055      -0.08649782       0.45238501
C        4.28131000       2.65685000       0.20992000      -0.72452151       0.06208095       0.31353353      -0.28378770      -0.47481477      -0.40000808
C        6.32284000       4.06705000       0.22058000       0.48534920      -0.06499958      -1.50942568      -0.17151678      -0.26796418       0.19751000
C        6.58522000       0.29848000       5.99038000       0.02460716       0.81659078       0.82325030       0.49655697       0.19514665       0.75948375
C        0.21424000       7.02922000       0.75325000       0.68089770      -0.29156937       0.56819849      -0.63001442       0.02197927      -0.49375239
C        5.90759000       7.44550000       3.58799000       0.86711340       0.48271219       0.64821742       0.29397264      -0.25933152      -1.06143665
C        1.87709000       1.43340000       0.43631000      -0.20278539      -0.48384781      -0.85987806      -0.06032121       0.39140993      -1.17508149
C        2.75006000       4.48210000       0.17805000       0.97693525      -0.37657512      -0.98094435      -0.45504296       0.24684426      -0.77376431
C        6.32027000       2.71297000       2.10710000      -0.21786783       0.13469005       0.03285534       0.05195899      -0.71203470      -0.19960317
C        5.28693000       1.99604000       6.96142000      -0.51966282      -0.32782609      -0.25048267      -0.49070472      -0.25412607      -0.20934576
C        5.28149000       3.43211000       1.17970000      -0.44206489       0.27339379       0.24125011       1.30337811       1.09951484       0.65290195
C        2.44785000       3.27551000       2.75233000      -0.01459844       0.88769662       0.12007868       0.80989623      -0.38941267       0.35698354
C        4.98050000       6.94507000       2.49717000       0.06689928      -0.64267185      -0.00183855      -0.03412020      -1.09880459      -0.02109534
C        2.42126000       6.72387000       7.14731000       0.41269438       0.07704255      -0.05225015       0.17738122      -1.97594666       0.74149007
64
Lattice="7.605088 0.0 0.0 0.0 7.605088 0.0 0.0 0.0 7.605088" Properties=species:S:1:pos:R:3:momenta:R:3:forces:R:3 virial="17.166598152555693 5.991147713396794 -33.39090528862955 5.991147713396794 41.228166781458995 3.125136537892319 -33.39090528862955 3.125136537892319 -19.953289831841346" config_type=Amorphous_Bulk pbc="T T T"
C        6.11834903       0.91919492       7.21338319      -0.15234257       0.17836307      -0.00024213       1.07664359      -0.89098603       0.05617464
C        6.42616565       0.25505905       0.95655537       0.60764607       0.02160149      -0.25578032      -0.07670969      -0.57647252      -0.96814883
C        5.69791155       5.00164525       6.95805705      -0.51620062      -0.39502717       0.02373652       0.10848573      -0.12349288       0.30155873
C        0.81517149       2.22060458       7.09346537       0.35678488       0.66751992       1.03520372      -0.31528872       0.48803729      -0.08606856
C        2.14242194       5.75572439       2.07306257      -0.17335158       0.39331582      -0.19179802      -0.06553988      -1.24067569      -0.30413657
C        0.10373518       3.34695612       1.88263280       0.47677248      -0.06628255      -0.23780179      -0.03559166       1.14543211      -0.82634747
C        5.13684886       1.13046880       4.13588682       0.15708634      -0.19270878      -0.21642799      -0.21857941       0.08811101      -0.58737314
C        7.40720342       0.34159402       3.62232024       0.24316652      -0.40839799      -1.07951022       0.06472196       0.51244450      -0.23957613
C        5.37372231       7.49173932       4.95310259      -0.54446798       0.85816357      -0.62761794      -0.05775204       0.73779213      -0.83173925
C        2.48909237       7.05483215       2.06196938      -0.59537133      -0.86071657       0.91931620       0.00372499       2.25886893      -0.23649642
C        7.32976645       4.31912561       3.91722181       0.67490256      -0.40224189      -0.44625949       0.70463765      -0.13344815      -0.17608327
C        3.59886176       5.82102008       4.87980887      -1.30450357      -0.12733800       0.55682653      -1.30609739      -0.20760460      -0.78848648
C        4.75304202       5.95425553       0.18449682      -0.07365902      -0.01616161      -0.15413070      -0.99937665       0.13919060      -1.15232551
C        1.32015471       4.54031402       0.27216279       0.44737112      -0.59987687       0.27706635      -1.71464884      -1.47641754      -0.57640868
C        2.44995213       1.74170370       5.13439132      -0.95619672      -0.10316204      -0.00146190      -0.32064193      -0.71998900       0.52862525
C        1.02629223       2.64439499       2.81798777       0.11828914      -0.07121370       1.40925357      -0.30280930      -0.74844766      -0.44557995
C        3.00885407       3.01828933       5.33144280      -0.37722011       0.16741830      -0.52408088      -0.59813249      -1.94584155       0.44031921
C        3.11822611       0.56989192       5.67707973      -1.02882360       0.54623691      -0.52393992      -0.56628823       0.36885369       0.33120799
C        2.34437497       5.30991563       4.60449181       0.09207792       0.43872806       0.84297119      -0.97237325      -0.23952723       0.74218893
C        5.28947148       6.87050358       1.14692888       0.56030460      -0.33651892      -0.53827621       0.72087955      -0.83080488      -0.69190019
C        1.18583012       5.88595574       5.14654225      -0.16256997       0.37946684      -0.15576576      -1.14679348      -0.11508755       0.16440445
C        2.68129594       0.43730292       6.96349803      -0.73814615      -0.43809035      -0.31148388      -0.77773952       0.70231891       1.42491245
C        6.77216819       1.31861361       1.94435956       0.31989781      -1.08283204      -0.38557463      -0.15198827      -0.14328746      -0.00934091
C        6.06726788       2.19697346       4.60801140       1.22309613      -0.94639856      -0.22651033      -0.29373747       0.21226215       0.03269079
C        5.58544462       2.77027044       5.85140594       0.52830026      -0.08132453      -0.23263958       0.26089340      -0.32056364       0.51972044
C        4.92276753       4.11179282       3.48953061       0.66459493       0.67220035       0.50648398      -0.32016146       1.49764955       2.19516492
C        7.40584772       5.35875127       5.01643696      -0.09899273       0.00125898       0.28999299       1.41778445      -1.50619006      -1.52248037
C        3.60184652       3.46605224       6.63539847       1.13130730       0.27107038      -0.11745573      -0.98277318       2.80188417       0.52190143
C        7.53467167       6.70760782       6.87273110      -0.18487894       0.55263516       0.73491151       0.74947566       0.96205908      -0.56833732
C        3.96854531       7.11199611       5.17565381       0.17176637       0.57171046       0.31609129       0.81558913      -0.04631743       0.38562027
C        1.36287064       0.37157342       1.48016988       0.72870699      -0.87255181       0.47611948      -0.35556465      -0.66160446      -1.04481268
C        0.01688044       4.73165789       2.37678371       1.10043038       0.03911419      -0.30973164      -0.58683050      -0.70503384      -0.03877509
C        2.95095107       4.58565010       2.23969774       0.19617046      -0.42447499       1.20107410       1.76319754      -0.09382926      -0.62825447
C        2.26926769       3.81548455       4.37417864       0.76131618       0.37826954       0.38439161      -1.42001009       1.25545275      -0.54483938
C        3.68239209       7.46577553       2.67836128       1.10599476       0.17590744      -0.41725829       0.20401040       0.86301339       0.13623269
C        0.20357141       3.46908541       0.29067020       0.13108280       0.04299006       0.36156673       1.74556065      -0.45214993       0.42956296
C        3.29699191       5.73595237       7.50397068      -0.68173425      -0.01808183       0.48177163       2.42358422      -0.71892023      -0.55720842
C        4.50750838       4.76313836       4.69963406       0.15724368      -0.81249842       0.31853148       3.25358677      -2.58988190      -0.99247772
C        6.80845693       5.59705032       6.19312303      -0.01187612      -0.07000557      -0.74881189      -1.34497023       0.02625245       1.77947807
C        0.78692882       3.23140175       4.22322843      -0.27643814      -0.12740570      -0.49341516       2.28439999      -0.04469714       1.41150451
C        0.91509566       2.03730590       5.38178795      -0.36601600      -0.26198366      -0.32551771      -0.91298121       0.07611628       0.43073878
C        0.52741463       1.12252172       2.47869456       0.94391068       0.31729992      -0.59778729       0.40230060       0.71168292       0.88172817
C        1.23351429       6.51892918       6.37640484      -0.51039720      -0.38489806      -0.69315764       1.48099148      -0.21262920      -1.22734678
C        0.80341575       5.56290675       1.39894375      -0.01499590      -1.27063914      -0.23933946       0.54167604       0.16485879       0.60354257
C        3.18171011       2.05814457       1.01337834      -0.22652038       0.18392965      -0.15084782       0.60863411      -0.34973669       1.39138317
C        3.31451375       2.15970753       2.50486255      -0.42156567       0.67759851       0.24086402      -0.95496893       1.32498932      -1.27427876
C        4.46919295       4.34216746       2.21918236       0.15397268      -1.18525472       0.97610929      -0.83549434       0.26517746      -0.27926600
C        4.91306935       4.07245292       5.99638793       0.29265238       0.11193107       0.08163097      -0.35082936       1.15211344      -0.18526031
C        6.16521667       3.33860525       3.57843714       0.40633886       0.70707524       0.11867747      -0.86202079      -0.86774170       0.82553571
C        7.33799517       1.16277614       4.93185277      -0.74226059       0.26417893       0.42601754       0.16937011      -0.51840663       0.14670713
C        3.93058350       1.16794544       3.24089898      -0.04878623      -0.32370616      -0.45858436       0.68460655      -0.25957808       0.51984662
C        4.33768632       2.60701614       0.28368808       0.19755221      -0.48920409       0.95797214      -1.20768023       0.83184731      -0.98308337
C        6.35929009       4.09290198       0.36903823      -0.57171373       1.01831250       0.13861871      -0.27267072       0.64776987      -1.58122122
C        6.63073090       0.23138754       6.01184350      -0.72636963       0.07803119      -0.47606368      -0.08554170       0.81312859       0.64559561
C        0.22912764       6.97639235       0.83707943       0.11123310      -0.23957430      -0.22420877      -1.21454227       0.36548230      -1.04440773
C        5.97813970       7.40040981       3.50032346      -0.89469466      -0.81452399      -0.77220180      -0.22925438       0.62358880       2.05760431
C        1.94151011       1.44192690       0.29290055      -0.29291879       0.50180585      -0.17738912       0.66245180      -0.74019122       0.14548165
C        2.59941555       4.50379366      -0.32880442       0.26149257       0.77012084      -1.80790727       1.61884475      -0.90087175       1.27817655
C        6.33267878       2.69822589       2.17764576      -0.52065205       1.06922456       0.00068917       0.44084054       0.31648564      -0.66435683
C        5.34631971       2.00182522       6.99292894       0.32262012       0.48365617       0.62891660      -0.38852435      -0.38896012      -0.59320009
C        5.33594498       3.47093317       1.24264699       0.55865352       0.12384384       0.96483827      -0.29300585      -0.08898088       0.69354707
C        2.50837311       3.35440732       2.87500321      -1.30136803       0.63259894       0.93663991      -0.78092599      -1.28564250       0.30584961
C        5.01201936       6.92999177       2.50730863      -0.79222389       0.29446094      -1.43295275      -0.51707661      -0.71207917       0.47781247
C        2.39875932       6.67079626       7.19547263       0.10452031      -0.16694471      -0.05435091      -0.37097782       1.50322449      -0.15519965
64
Lattice="7.605088 0.0 0.0 0.0 7.605088 0.0 0.0 0.0 7.605088" Properties=species:S:1:pos:R:3:momenta:R:3:forces:R:3 virial="17.166598152555693 5.991147713396794 -33.39090528862955 5.991147713396794 41.228166781458995 3.125136537892319 -33.39090528862955 3.125136537892319 -19.953289831841346" config_type=Amorphous_Bulk pbc="T T T"
C        6.16131055       0.92851728       7.30155408      -0.07636296       0.29097216       0.99846006       0.28965127       0.75416207      -0.96185702
C        6.46134950       0.16532897       0.96052068       0.23413407       1.05648444       0.01446226      -0.14351875       1.13634288       1.11429417
C        5.75791976       5.06590765       6.97351499       0.59683553       1.04239588      -0.35194284       1.00142264      -0.48766243      -0.48418629
C        0.63173773       2.18244759       7.11715030      -0.57004900       0.50106071      -0.43436282       1.36712503      -0.31899971      -0.45543423
C        2.28026204       5.86651035       1.96153036      -0.73995723      -0.37506752       0.14073446      -2.36869454      -2.42761183      -0.30006880
C        0.08703118       3.33545058       1.87091811      -0.39703053      -0.17195636      -0.01186380       0.91097122       1.06985223      -0.73607266
C        4.89307913       1.24157764       4.27126536      -0.44421388       0.15711415      -0.14091392       1.07333207      -1.13674414      -0.22183165
C        7.04844724       0.56002513       3.45467462      -0.82010850      -0.49992929       0.81060905       0.93360341      -0.20147178       1.22229433
C        5.22639725       7.50707160       5.00483165      -0.27304346      -0.27132167       1.22475952       0.83936328       1.42456484      -1.48272061
C        2.57947503       7.14038583       1.85716032      -0.40449359       0.55163990       0.35510536       0.26896203       3.77058506       1.83855295
C        7.36422290       4.13319159       3.95185644       0.71287605       0.35011826      -1.14116817       0.01010279       1.18285155       0.33768988
C        3.61578188       5.75177034       4.76946780      -1.09048333       0.21866898      -0.13821050      -0.81602806      -0.22222386       0.30555677
C        4.77253927       5.98909050       0.17572022      -0.48814354      -1.25083155       0.26832091       0.05407368       0.02998678      -0.73595351
C        1.36224558       4.50974571       0.24251957       0.31772998      -0.44964894      -0.75300570      -3.26805353       0.43879825       1.20232725
C        2.34751094       1.61176027       5.31966634       0.11453671      -0.30397153       0.46737381       0.74085212       0.75765353       0.65511298
C        0.98178307       2.58004897       2.77965075       0.50702104      -0.05733718      -0.61990049       2.52434492       0.11903441       1.07923031
C        2.93103156       2.91596583       5.54569169      -0.09242335      -0.05666510      -0.40268474      -0.85757506      -1.36172223      -2.02487373
C        3.11310154       0.46063796       5.84674367       1.08369967      -0.27004183      -0.15945235      -0.46308464       1.66126502      -2.97154856
C        2.39630858       5.14882195       4.65066232       0.44168294       0.26480043      -0.67693928      -0.90260285      -1.63558865      -0.55007291
C        5.34436396       6.81635250       1.20954569      -0.04115496       0.61827555      -0.17510153      -0.11657874      -0.77055287      -0.70455217
C        1.23636102       5.69820983       5.08456532       0.83175057       0.29122930       0.96841896      -0.68275577       0.90408182       0.26790842
C        2.81747636       0.38106905       7.15113282       1.08526684      -0.74753107       0.28321661      -1.54629517       1.79279208       1.53708982
C        6.72052731       1.28893653       2.12457201       0.98636517       0.38980947       0.38490312       1.29518127      -2.57027578      -0.54062957
C        5.94533333       2.22058536       4.68701273      -0.65959987       0.09292201      -0.16942224       0.08414789      -0.25976914      -1.48738742
C        5.48772528       2.78902868       5.89036807      -0.00182582      -0.28907774       0.17474550       0.96003205      -0.67477548       1.40062177
C        4.91125983       4.20332242       3.48179421      -0.47404788       0.01972554       0.42487417       3.04061699      -2.46320081      -0.05110438
C        7.48931025       5.17672940       5.01297084      -1.06795048      -1.52931726       0.25866887       0.26496792      -0.39121556      -0.15980837
C        3.59210997       3.56260384       6.75723582      -0.02528662      -0.13901846      -1.14477753      -0.35269779      -1.18954301      -1.35616124
C        7.61462583       6.81499875       6.69153670       0.06062468       0.25037408       0.28386106       0.60083604       0.46794730       0.71524227
C        3.87938800       7.03541457       5.16010737       0.46964733      -0.66273815       0.41650683       0.51073945       0.62087560       1.35201418
C        1.39521329       0.42298014       1.45031556      -0.72542808       0.58013798      -0.66058388      -1.09159219      -0.95327854      -1.45466685
C       -0.02375015       4.73277714       2.29999552      -1.02006603      -0.22968416       0.45192424       0.09933385      -0.13670197       0.83936119
C        3.08112057       4.75012481       2.18520606      -0.01322586      -0.25697063      -0.09245922       0.81431681      -3.05029440       0.71153748
C        2.31470613       3.65824930       4.34425405       1.10300983       0.03292655      -0.03215075      -0.00698593       2.25223684       2.02187419
C        3.71593719       7.63469961       2.55454796       0.06477381      -0.40976043       0.82352845       0.26492351      -1.30907476      -0.09995502
C        0.22224709       3.47498359       0.29354075      -0.13492894       0.03909709       0.21756271       1.90855920      -0.87449861      -0.18064600
C        3.37194147       5.73414947       7.38304307      -0.61457500      -0.24083533       0.33994604       0.32740903       0.33845514       0.45790869
C        4.62596241       4.75934071       4.65920354       0.02418083      -1.31922450      -1.14279046      -0.08112204      -0.07736677       1.28771758
C        6.92125258       5.63313968       6.17072945       0.20559509       0.10331709       0.29667955      -2.65306807      -1.18889904       0.70021367
C        0.88453792       3.12185676       4.25429716      -0.40295274      -0.25548391       0.15975683      -0.69490790      -0.29634213      -0.52178854
C        0.83041868       1.96042202       5.41670990      -0.35630482       0.71350394      -0.51848274      -0.68182182       0.70058411      -0.06720626
C        0.61506859       1.15196977       2.48781637       0.03332508       0.39272100      -0.17614541      -0.61373007      -0.29462025      -0.61777985
C        1.34152575       6.57672046       6.13570927       0.65173156      -0.29991544      -0.58989589      -0.69489455      -0.00255358       0.50919801
C        0.84055615       5.61427364       1.36761744      -0.14683776       0.57638905       0.30153084       1.30326724      -1.21480072       0.12791359
C        3.12264178       2.12261418       1.00048927      -0.27205383      -0.31225957      -0.38542716       1.29287958      -0.25483087       0.87662303
C        3.37680921       2.26706573       2.45872890      -0.79212919       0.41940761       0.34443614      -2.21310878       1.52638328      -1.81586504
C        4.55128907       4.44185373       2.12303066      -0.11388294       0.71884094      -0.61534120      -0.63935542       0.17055294       1.16543758
C        4.92348094       4.10063546       6.03154419       0.32959824      -0.04671596       0.24949507      -0.43229565       1.53398144      -0.73748398
C        6.07850974       3.23649922       3.60721808       0.30672415      -0.04791319      -0.80860847       0.98833418       2.26220608      -0.36848313
C        7.16485968       1.24602266       4.95529198      -0.14702142      -0.87857539      -0.49489331      -0.13550550      -0.73245078      -0.97103947
C        3.94369993       1.30254942       3.19142661      -0.19476053       0.00831657       0.57089318       0.85822654      -2.07524943       0.99593508
C        4.29935106       2.57661804       0.24231381      -0.03979750       0.53674807       0.24370951      -1.03537250       2.40081739       0.22369081
C        6.44953464       4.13003885       0.36122111      -0.29050420      -0.51878268      -0.68994032      -1.52504683       1.34246647      -1.32953513
C        6.57471087       0.29355468       6.07238567      -0.06773287      -0.15302041       0.15461871       1.22986507      -0.41520625      -1.28748024
C        0.23912095       7.02820320       0.75548392      -0.26205404       0.31049927       0.41817777       0.49324811      -0.35937497      -0.64125037
C        5.83379075       7.32185999       3.66181421       0.78423142      -0.83637781       0.82551547       0.46382028      -0.28216219      -0.69473410
C        1.92475892       1.41883204       0.27672059      -0.49470400      -0.11709605      -0.24999936       0.46149325      -0.23111263       1.79172158