36
Lattice="6.163743 0.0 0.0 0.0 6.163743 0.0 0.0 0.0 8.218324" Properties=species:S:1:pos:R:3:momenta:R:3:forces:R:3 virial="7.324435467915814 -1.3691905013204728 1.5736151506864136 -1.3691905013204728 -10.260009212337337 7.134474633720599 1.5736151506864136 7.134474633720599 -2.2939334134585585" config_type=Amorphous_Bulk pbc="T T T"
C        0.57378000       1.17009000       4.07436000      -0.73470393      -0.26098412      -0.77916950      -0.20086664      -1.00160778       2.46074581
C        0.89629000       4.88797000       0.07276000       0.27517696      -0.33545044       0.08426936      -0.87537843       0.01172566       0.95284879
C        2.54043000       3.44895000       7.34780000       0.66705658       0.01806179       1.15435106       5.62572050       1.92930341      10.99490166
C        4.84841000       2.41263000       7.22344000       0.85980212       0.08391521       0.39195033       1.86310399      -4.28942585      -1.30696809
C        5.28632000       0.52287000       0.98788000      -0.65897661      -0.51989552       0.06805282       0.17954430      -1.13646102       1.66529572
C        4.07918000       0.53219000       1.98739000      -0.11647376       0.64525700      -0.75876616       1.38047028      -0.26716948      -0.43551654
C        0.94356000       4.03255000       5.77537000       0.12215005      -0.34736969      -0.41119411       3.33213186       1.27078140      -2.80145812
C        3.03133000       5.98555000       7.72892000      -0.53308535      -1.12699283       1.14350369       3.51104236       0.73684096      -4.75638723
C        2.54563000       3.83700000       2.95925000       0.47764097       0.07037521      -1.43916593       1.51177311      -1.72674954      -1.33372104
C        1.73480000       0.41012000       4.39522000       0.44958882      -0.72224875       0.47729022      -1.72323370       1.75353324      -3.67792964
C        4.38668000       2.75246000       4.64926000      -0.63682580      -0.44444515      -0.25506639      -1.17062044       3.92303801       0.44171044
C        2.04413000       3.34240000       1.75662000      -0.02099293       1.29588045      -1.35832127      -0.12345777      -1.57951427       0.98262769
C        4.28023000       5.50125000       4.34532000      -0.82875757      -0.58536637       0.42499411      -2.87757516       1.59131384       1.01936793
C        1.00174000       5.53857000       6.58505000       0.12197389       0.28442135       0.04721353       0.64370108      -1.77544963       2.11390185
C        4.73002000       4.36013000       6.64212000      -1.81508131       0.72139545      -0.50406658      -2.57310057       4.23918772       5.65415430
C        1.94183000       3.88027000       0.38394000      -0.08117971      -1.46782463      -0.51740417      -3.46042347       3.19910049      -0.58857381
C        6.09101000       0.39639000       6.35860000       0.71209147       0.12584983       0.98797141       0.49092311      -3.71641016       3.63581634
C        4.92413000       4.11009000       5.33541000      -0.58976225       0.58173414      -0.04926983      -2.48175311       2.81595278      -4.65148973
C        4.65572000       5.75968000       7.16090000      -0.16280954      -0.04695979      -0.19493486      -1.25121760      -1.18544817      -2.33028197
C        4.81604000       1.86793000       5.73643000       0.71876975       0.63644554       0.85777368      -0.09427452       2.71455479      -2.11965775
C        5.59863000       3.80368000       3.34960000       0.14250638      -1.34242767       0.52571388       5.86451244      -2.15533304       0.92609602
C        1.11832000       2.08866000       2.02172000      -0.94402008      -0.00789688       0.46780818      -0.48969626       2.33651924      -2.04851604
C        2.89866000       0.46052000       4.97999000       0.19629915       0.45161347       0.31556569       2.19208264      -4.13444042       0.73368567
C        5.79133000       5.09356000       2.55370000       0.88997963       0.05035636      -0.28483431      -1.96373761      -3.96965170      -2.79036880
C        3.02606000       3.07656000       4.13231000       0.97146909      -0.32764588      -0.16031791       0.08666267       1.05744958      -3.75811172
C        5.75331000       1.64757000       8.03350000       0.60384951      -0.25318278      -0.34174790      -0.68521273      -0.83020800       1.15041482
C        2.20894000       3.40741000       5.11665000       0.15897171       0.38894390      -0.69910872      -2.80785608      -0.14535671       3.62588382
C        0.10200000       1.61554000       1.18283000      -0.66794311       0.96828778       0.04347372       0.41812485       0.22593081      -4.11896610
C        2.08588000       2.85652000       6.37078000      -0.09292900      -0.49555693       0.54375299      -4.78340626      -2.24676371      -6.82124281
C        2.39572000       6.01911000       6.19986000       0.55130276      -0.25204010       0.93040142       0.57197100       0.23854920       5.97066355
C        0.31271000       2.12372000       3.17664000      -1.19154711       0.35662302       0.83147979       0.51746458       3.70032072      -0.76876378
C        4.52840000       5.82420000       3.02899000      -0.16863355       0.08696058      -0.87337506       1.33176482       0.40777913      -0.64442140
C        4.03542000       3.48001000       7.54095000       0.49370005       0.50900523      -0.98238718      -0.52504855       0.54503554      -0.69530100
C        5.91820000       5.18782000       1.04323000       1.43062893       0.71822263       1.11202891       2.52926612       2.73453951       0.46135360
C        0.02556000       4.44826000       4.80391000      -0.67692257       0.18134378      -0.58603512      -2.41054416      -3.48113561      -2.90933657
C        5.96069000       1.22889000       5.21665000       0.07768638       0.36159483      -0.21242979      -1.55285740      -1.79033256       5.76754427
36
Lattice="6.163743 0.0 0.0 0.0 6.163743 0.0 0.0 0.0 8.218324" Properties=species:S:1:pos:R:3:momenta:R:3:forces:R:3 virial="7.324435467915814 -1.3691905013204728 1.5736151506864136 -1.3691905013204728 -10.260009212337337 7.134474633720599 1.5736151506864136 7.134474633720599 -2.2939334134585585" config_type=Amorphous_Bulk pbc="T T T"
C        0.68358316       1.50287765       4.09326843       0.18755491      -0.19996566      -1.98216410       1.21836174      -4.02762699       2.73819590
C        0.93121068       4.87584695       0.29555988       0.55307521       0.67354614      -0.99428256       1.12277043      -1.77229142      -0.39637148
C        2.66298023       3.30446164       7.69543705      -0.69491817       0.26264526       0.41087183      -3.57538176      -1.41440332      -0.39490774
C        4.90332999       2.53867971       6.92458401       1.78982290       0.92751062      -1.18629819       4.89137602      -3.82711649       0.80620539
C        5.79179704       0.26255030       1.51263341      -0.58894843      -0.70952661      -1.40479084      -3.87910628       4.14832926      -0.87505901
C        4.55073374       0.54596846       2.33958225       0.09298859      -0.29056627       2.60184881       1.20380735      -1.18679655      -0.61392117
C        0.80666920       4.53056881       5.74474088      -1.18192324       0.99126657       1.69801260       3.15551782      -0.39354831       2.33805442
C        3.39219277       6.52595648       7.04143671      -1.89655621       2.12456995      -1.96035405       0.94625646      -0.77944458       0.68941903
C        2.85226297       2.91513059       2.66230952      -0.92830011      -2.25097912       0.32507662       2.51748013       0.59594560       2.68108678
C        1.97392017       0.66869661       4.06163657      -0.62700454      -0.33415459      -0.10672190      -2.11410141       0.74777567       0.18684414
C        4.15560659       2.93581040       4.74325958       0.76823672      -2.11287819      -0.20187079       0.66887933       2.91162825      -0.90081120
C        1.94866790       3.11847376       1.76068913       0.20934765      -2.39432632      -1.32217039      -1.30760372       0.35784259      -2.72382069
C        3.80157426       5.31103395       4.36822133      -0.05133568      -3.19631900      -0.75150444       1.80828452       0.41943365      -3.30715585
C        1.04676934       5.59781416       6.97945150      -1.70624226      -0.57275051      -1.38592074      -3.81303406      -1.27185047      -1.92807353
C        4.49554953       4.44595349       6.63983666       1.68439588       2.29547117       1.40939168       0.30349860       3.89943504       1.60973275
C        1.85657797       3.84154179       0.51815426      -1.17216273       0.33371247       1.22514704       0.02139808       2.11659908      -2.01267314
C        6.01545058       0.58682777       6.55511401      -1.00193917       1.40867438       0.30285803       2.01417828      -1.40466285       4.68004227
C        4.57153713       4.36975558       5.13544583      -1.10942304      -2.02861103       0.63733844       0.13377735       0.93129623       1.96008801
C        4.62999686       5.97507110       7.19353802       1.26179412       1.94942376      -0.08512743       0.10550550      -1.25489128      -3.70942545
C        4.91172194       2.18876684       5.52250987      -1.00991700      -2.52465139       0.39640243       1.95131803      -3.02522278       1.06173825
C        6.07345720       3.73740181       3.59015642      -2.64973785       2.98589148       0.41991505       0.85982955       0.02536911      -2.67528510
C        0.83482870       2.29324191       1.81997556       1.45592228       0.88047644       0.05999505      -3.58894658      -0.83298600       0.54529393
C        2.65240578      -0.33698129       4.78843890       3.09946879       2.03934126      -0.05320292      -3.29588318       4.77898455       1.22496748
C        5.58058822       4.64352771       2.67414058      -0.69058766      -0.46038627       1.54930445      -1.88561940       0.33873785      -2.74728560
C        3.08806752       2.91537294       3.95146990       0.29496768      -2.81417286       0.93459108      -1.95517612      -1.30700946      -2.83089423
C        6.03938220       1.85495791       7.59738338       2.10645416       0.41624504       0.19718023      -1.48792744      -2.26669860       0.38201651
C        1.76149791       3.54020944       5.27183580      -0.11230275       1.37653786       1.44365812       2.33640885      -1.87813222       4.78636408
C        0.08226179       1.52547544       0.92639102      -0.22349328      -1.41117510       0.76210529       1.29997611       0.74093813      -3.28462124
C        2.11972722       2.78941999       6.43809390       0.89425795      -2.06485720      -0.01319664      -0.66386777       1.49874842      -0.24882378
C        2.31427487       5.96381356       6.48807205       1.27585373       0.88617776      -2.47335474       2.67016339       1.14214933      -1.37904096
C        0.29534151       2.51018111       3.17310531      -0.48727530      -0.31839085      -1.49952827       1.55136204      -2.49206018       0.84483314
C        4.32348248       5.48559595       2.98620050       0.72160202       1.01805403       1.48188300       1.98660326       0.30507615       2.14302206
C        3.95486573       3.37429803       7.36232959       0.61728228      -0.87696777      -0.48597042       0.90990591       3.35756016       0.91264701
C        6.11998926       5.08950121       1.36446029       0.28247093      -0.24531112       0.20728286       0.71203727       1.40115905       0.36645269
C       -0.05911758       4.41170491       4.81031069      -0.95315389       2.83679793       0.61843017      -6.66478157      -0.23155028      -0.15946257
C        5.94790511       1.27161334       5.22757721      -0.21027447       1.39964775      -0.77483440      -0.15726471      -0.35071579       0.23062786
36
Lattice="6.163743 0.0 0.0 0.0 6.163743 0.0 0.0 0.0 8.218324" Properties=species:S:1:pos:R:3:momenta:R:3:forces:R:3 virial="7.324435467915814 -1.3691905013204728 1.5736151506864136 -1.3691905013204728 -10.260009212337337 7.134474633720599 1.5736151506864136 7.134474633720599 -2.2939334134585585" config_type=Amorphous_Bulk pbc="T T T"
C        0.67486855       1.49063931       4.14059509       0.32561767       1.41599100      -0.71152156      -0.36620560      -1.95643592       2.28042293
C        1.04870324       4.94796248       0.13786163      -1.45159777       1.01842357       1.32861082      -1.93387973      -0.10461152       0.83575881
C        2.98384368       3.51334052       7.83082802       0.29875633       0.51893019       1.52210260       3.22172618      -0.97925985       0.66036034
C        5.21802475       2.51325043       7.10729220      -0.30824301       1.04796988      -0.51628540      -0.62599504      -0.29267365      -2.11625862
C        5.54838058       0.46076143       1.33078707       1.38261973      -0.24884013      -0.16974863      -2.39162040      -2.01919937       0.58349562
C        4.53255922       0.64619698       2.27694913      -1.38073568      -0.80196368      -1.81648961      -0.14112732      -1.96342111       0.84759337
C        0.70628272       4.38084284       5.73503268      -0.72478354      -1.96146320       0.14103647       1.15875971      -1.32177806       2.67595744
C        3.55268764       6.57469082       6.91862810      -1.24032805      -0.97463567       1.05667889       1.83880126      -0.90809309       1.47492862
C        2.97331045       2.88834167       2.45540564       1.08042675       1.13999717       0.03149176      -2.53509927       0.99316227      -2.60809064
C        1.95584700       0.88691428       4.12008642      -0.56007523      -0.16766993       1.28545635      -1.26240075       0.54165220      -1.22281420
C        3.72653296       2.80124940       4.82747169      -1.32942121       0.95486365      -1.55573335       2.50748372      -0.71608293      -0.52310658
C        1.87431052       3.15076331       1.69233536       0.31764483       0.21388364       0.55626851      -0.17799109      -0.52001828      -1.58779871
C        3.76046576       5.45259122       4.33466784      -1.45885665      -2.23395961       0.54176440       1.65175998      -2.31375194      -2.49438357
C        0.95408516       5.67455515       6.93319383      -0.19824594      -0.39006601      -1.19666063       3.15283155      -2.45511007      -0.95794767
C        4.26268219       4.43506470       6.55243993       1.43570676      -0.69721242       0.30367702       2.04772902       4.83873701       0.71037501
C        1.97706447       3.96771417       0.42445935       0.17193241       2.06183638       0.72287708      -1.95169687       1.66440737       3.32665539
C        6.04970834       0.50552501       6.84808879      -2.06739941       0.75724387      -0.06932941       0.21736842      -2.69266415      -3.62239647
C        4.27418498       4.22947747       5.06006296      -0.61683321      -0.08095516      -0.08364035      -2.17302537       2.79085827       1.39937437
C        4.72087206       5.80924496       7.01369793      -0.86522710      -1.49668551      -0.18004506      -2.45137787       2.91150236      -1.70354569
C        5.05368653       2.40180927       5.49653386       0.71092921       0.16564573      -1.35424488       1.27000463      -1.17841935       1.96111488
C        5.96789015       3.67643173       3.41346453      -1.95921834       1.41764513       1.18500582      -0.61334205       1.19770539       1.55938315
C        0.62520883       2.26904258       1.81329416       1.41883187       0.57920606      -0.14757860       2.28241754       2.90340447       0.32442075
C        2.60954747      -0.09257408       4.81968719       3.15285636      -0.42453253       1.16357861       0.32852471       1.09108424       0.64365387
C        5.62810963       4.79353685       2.49466067       0.25756458      -1.75282232       1.03317852      -0.65809089      -3.11496711       1.52055311
C        3.51040465       2.33247795       3.43834673       0.28513161       0.83083476       0.08288902       0.20859192      -0.49056947       3.84895205
C        6.11281934       1.66233691       7.68543349      -0.18067577      -0.05248640      -0.68451723      -1.93532991       2.28179169      -0.34269100
C        1.46657146       3.28659108       6.13662329       0.97510541      -2.73659368       0.04588846      -0.78168499       1.89376628      -1.80359435
C       -0.10778931       1.67863387       0.88616001       0.06241971      -2.30521910      -0.61326030       2.51781631      -1.54005218      -2.90632868
C        2.45686376       2.83580867       6.81159007       1.72160728       2.41211084      -0.08853338      -1.40548551      -1.26614034      -2.78302097
C        2.44948896       6.09388366       6.36575778       0.05294988      -1.77590875      -1.01673576      -4.11227226      -0.50168860      -0.68850195
C        0.09429010       2.37895852       3.13099484       0.42351892       2.09720661      -0.74795595       2.42566252       0.53547233       1.00610805
C        4.45038193       5.60558691       3.02973451      -0.06749733       0.43711821       0.30930758       0.24939902       1.49724650       0.73170620
C        4.46193550       3.56893166       7.63221971      -1.49045738       1.02035992      -3.06923523      -0.43705797      -0.94127727       0.47810262
C        6.05996857       5.14199541       1.14616294       0.46021965       0.96378106       1.70997045       0.63388360       3.83515358       1.00060630
C       -0.42739772       3.88444495       4.99323916      -0.00871900      -1.72799258       1.11586090      -1.28448153      -0.55916595      -3.55368400
C        5.90469585       1.26409788       5.22356340       1.37447568       0.77595903      -0.11412797       1.52540517      -1.14056385       1.04463875
36
Lattice="6.163743 0.0 0.0 0.0 6.163743 0.0 0.0 0.0 8.218324" Properties=species:S:1:pos:R:3:momenta:R:3:forces:R:3 virial="7.324435467915814 -1.3691905013204728 1.5736151506864136 -1.3691905013204728 -10.260009212337337 7.134474633720599 1.5736151506864136 7.134474633720599 -2.2939334134585585" config_type=Amorphous_Bulk pbc="T T T"
C        0.80892266       1.36704248       3.99530429      -1.79649557      -0.54476371       0.53430408      -3.21326399       0.17635038       2.71055841
C        0.99973309       5.04031648       0.17092437       0.90422163       0.04596099      -1.59424232      -0.77683371      -0.95943075       2.13148451
C        3.04786064       3.69141047       7.74224389      -0.50000886      -0.70533889      -1.00619121       0.48424923      -0.63588798       1.00505221
C        5.13327599       2.51725427       7.00924240       0.87001270       1.35325893      -1.61660147       0.90567118       0.23224142       1.00698066
C        5.52606673       0.43611779       1.47838011      -0.03937593       0.74117216      -1.22073465       0.14954203       1.05390680      -2.36654115
C        4.35545217       0.51066971       2.24012113       0.74001998      -0.30144367       1.11152125       0.92199242       0.38864774      -0.88390106
C        0.63280439       4.30959445       5.86630089       1.27038471       2.45284703      -0.29969165       1.82118464      -1.84832358       0.97696739
C        3.15022377       6.30556904       7.07628854      -0.29028521       0.92814152      -2.13676328       6.01799297       1.80753088       1.35059273
C        2.93777794       3.04944162       2.61641900       0.19048987       0.13813259       1.97955525       0.31725073      -1.57093608       1.99440658
C        2.19784576       1.00753162       3.99097469      -1.31202100       1.55404493       1.90488080      -1.77560115      -1.36237943       1.77218390
C        3.90490143       2.91697449       4.87368950      -0.84644301      -1.07863154      -0.40525003      -1.33605337      -3.71156001      -2.19993544
C        2.01980390       3.30368587       1.65345634      -0.26225818      -0.90802287      -0.61203125      -0.78048873      -2.27983356       0.82715088
C        3.74615068       5.36405836       4.26423827      -1.14298669      -0.19140845       0.09613458      -0.08320004      -0.51784897      -0.07705480
C        0.83472777       5.54842643       6.94813365      -0.22041288       1.20696522       0.69362918      -0.37225211      -1.03253937      -2.63607979
C        4.22501285       4.57943674       6.46576265       1.05764264      -2.07516477       1.30442308       2.38173509       2.50670815       2.72662330
C        2.00108006       4.18112251       0.54494999      -0.19458316      -0.60527211      -1.11086000       1.95659900       1.31090569      -3.23800349
C        5.87810765       0.40148559       6.67663972      -0.44915522      -0.27294088       0.99629640       2.88765621       1.48145068       0.18255818
C        4.41903535       4.32484501       5.03397996      -1.71110328       0.44378933      -2.06418012      -3.27591038      -1.13113320       0.60030818
C        4.53372894       6.04786410       6.71055842       0.22831416      -2.26600765       1.96388695      -4.15724659      -2.04602981       1.33209419
C        5.08910531       2.30525433       5.51052173       0.67095288       0.19028837      -0.27341176       1.84319484       0.09529382      -0.83880556
C        6.21972297       3.70943700       3.47423959      -0.98776270       1.56830430      -1.64174155      -1.57593310      -1.83824778       0.29740059
C        0.88963441       2.30206748       1.69314239      -0.08799386       0.01345380       0.86719022      -0.94473922       1.37144971       1.41351390
C        2.61123719      -0.18861017       4.79873789       2.86531605      -0.46056412      -1.25122772       0.05087993       1.57952309      -0.74714917
C        5.78283223       4.75994257       2.58285005      -0.42107953       0.35436411      -0.35484216      -1.29949760      -0.97586238       0.32250288
C        2.99548193       2.14023876       3.81375189      -0.32885797      -1.94018746       0.52159460       2.49182296       5.29027843      -1.80540073
C        5.98685115       1.72410206       7.67053553      -0.78105269       1.70490996       0.78448686      -0.70656419      -2.69597316      -1.30885339
C        1.59870805       3.33028881       6.05605475       0.03622721       0.89046264       1.12978401      -0.25478476       0.46774396       1.27903283
C        0.03294874       1.64212565       0.89159418      -0.46256900       0.09944775      -0.92151523       0.25765955      -1.11176383      -2.26053762
C        2.27354849       2.69942874       6.99765726      -0.68202787      -1.30866634       1.60317185       0.13380054       1.42721593      -1.35004294
C        2.15865358       5.95195996       6.32958055       0.14387986       1.07171608      -0.49051319      -1.82222629       0.08943395      -2.63791132
C        0.29983284       2.38463617       3.03057073      -0.60319164       0.10266720       0.64048697       2.31295061       0.74132127       2.43982697
C        4.36950542       5.55197034       3.00114298       2.27749141      -1.19212897       0.41046845       1.49365544      -0.88613874       0.95172256
C        4.59688735       3.69610577       7.63251449       1.22204868       0.03863895       0.40253028      -3.42248487       0.52061379      -2.18727279
C        6.17860405       5.26199086       1.28615281       0.39218353      -1.19765243      -0.59947876      -0.93018419       2.09508920       1.08667433
C       -0.36292933       3.78700607       4.94996974       0.24496151       0.29449299       0.50506909       0.28176731       1.39435804      -1.66544890
C        6.03795385       1.15032857       5.18072562       0.00551746      -0.14486498       0.14986243       0.01766127       0.57382613      -0.20469758
36
Lattice="6.163743 0.0 0.0 0.0 6.163743 0.0 0.0 0.0 8.218324" Properties=species:S:1:pos:R:3:momenta:R:3:forces:R:3 virial="7.324435467915814 -1.3691905013204728 1.5736151506864136 -1.3691905013204728 -10.260009212337337 7.134474633720599 1.5736151506864136 7.134474633720599 -2.2939334134585585" config_type=Amorphous_Bulk pbc="T T T"
C        0.85935462       1.49077294       4.01379641      -1.09946012      -0.20716506      -1.03951928      -4.87897301      -0.80816662       3.35503960
C        1.07633448       4.95331146       0.17020617      -0.95911007      -0.80109586       0.88439312      -0.55498898      -1.77677357       1.11386919
C        2.99544859       3.20397406       7.98758607      -0.77520004       0.04223838      -1.09202801      -2.81184840       0.61393225      -0.13447648
C        5.07852386       2.52355278       7.06765506      -0.74463401       0.69410682      -0.82114785       1.71253121      -0.20799527      -0.89833534
C        5.67853367       0.30684875       1.46425103       0.56688858       1.08411829      -0.19510439       0.07826458       2.72979307      -3.42389178
C        4.74102315       0.63629153       2.40765414       0.70940391       0.05223149      -0.50319003      -0.42199776       0.93671441      -0.39558542
C        0.65926401       4.28163494       5.86109144      -0.70548174      -0.87460197      -0.34616273       0.03846150      -1.76768827      -0.67016721
C        3.46610074       6.81943842       6.87466359       0.63580328      -0.64796141      -0.05592803       1.69330716       0.22009633      -0.26410198
C        2.82694550       2.97503742       2.63956805       0.78705734      -0.40093531       1.06369154       0.16210139       0.92300975      -0.02862918
C        2.16683259       1.16442811       4.01018234      -0.17793823       1.90435696      -0.81231587       2.67908192      -1.06724155       1.74262404
C        3.69739774       3.03435768       4.94379205      -0.36392336      -0.11889080       1.23471598       1.07240343      -3.87378454      -0.44188449
C        1.77578358       3.17917352       1.87200644      -0.93090081       1.78531925      -0.87498619      -0.06939848       0.28487536      -4.44169998
C        3.75076652       5.39834412       4.15136581       0.49228698       0.69587824       2.28536221      -1.96025872       0.16804321       3.05837059
C        1.00199099       5.49050166       6.86230468       0.00562091      -0.53479577       1.47796346       0.73690432       0.49873561      -0.94796717
C        4.05269925       4.80435381       6.56675500      -1.08730725       0.19247493      -1.42286650       1.17817628       0.05712079      -0.79386139
C        2.00617119       3.94656093       0.49303842      -1.34482728      -1.40037885       0.47526108      -2.40200639       0.50339890       2.59931993
C        6.19003181       0.54422320       6.58473418       0.71174414       0.60218818      -0.66436723      -0.60574210      -2.00834465      -0.67762911
C        4.30565692       4.35085417       5.07194700       0.15753853       0.13904318       0.55023921      -2.49138713       1.10217893       0.64014268
C        4.69691903       6.14216925       6.59806295       0.74774033       2.27185217      -0.16264804      -1.01438129       1.05837250       2.97064066
C        5.01057463       2.32546274       5.45464968      -1.08414626       0.29213860      -1.03429165       2.48392558       1.16681957       2.12864804
C        5.91302875       3.63652373       3.52432840      -0.89029334      -0.14374181       0.15702032       0.79198420      -2.15852380      -1.58480787
C        0.61589738       2.21390088       1.79893799       0.08001005       0.67149657       0.08884256       1.07444739       2.39423728      -1.73220134
C        2.65853271      -0.02782661       4.81592752       1.16681113      -1.37342661       0.33173427       1.80693114       0.26542217      -3.15423608
C        5.59162770       4.64917853       2.64177590      -0.25686736      -1.66960414       1.04370951      -0.76821160       0.10370547      -2.00241041
C        3.03028963       2.41520610       3.83419490       0.92147084       0.54877928      -0.34201979      -0.65735263      -1.03964794       0.55886734
C        6.19943489       1.69380055       7.56163028      -1.98357345       0.51960445       0.14218171      -3.12245703       0.75281703       0.87053192
C        1.51530628       3.20647225       5.95496421       0.35179428      -1.88275850      -1.74123923       0.31835219       0.79782593       1.54739189
C        0.16275703       1.42284582       0.78770933       1.14199653      -1.14940275      -1.03360672       0.36513263       1.11508381      -0.56179738
C        2.38737117       2.71869334       6.83118508       1.44884951       0.19420690       0.03810396      -0.68204606      -1.08734095      -1.75244343
C        2.46544965       5.91734432       6.28689125       0.60128873      -2.09340652       0.83656837      -0.26292869      -1.53401518       0.53498358
C        0.08482168       2.29288884       3.09451744      -0.21358701      -0.24552678       0.31079249       0.73847663       0.74889255       1.20314991
C        4.44002054       5.59338222       2.97016601       0.08659262      -0.29416477      -0.66830357       1.18321157      -0.58989877       1.96827936
C        4.23184199       3.64139355       7.62825664       0.84209326      -0.02618865       1.32072046       4.22684860       0.25951993      -2.47442555
C        6.11748031       5.19756859       1.31039804      -0.79714902       0.05346138       0.77625063       2.00652027      -1.70866203      -0.03024459
C       -0.49945538       3.75766882       4.93131173       0.79066225       0.43517382      -0.02299148      -0.07828665       1.64661598       2.33764315
C        6.16033278       1.21078758       5.18984478       1.16874621       1.68537667      -0.18483427      -1.56479514       1.28087306      -0.21870510
36