27
Lattice="6.403228 0.0 0.0 0.0 6.403228 0.0 0.0 0.0 6.403228" Properties=species:S:1:pos:R:3:momenta:R:3:energies:R:1:forces:R:3 virial="26.379653532115288 -2.8806012487978325 9.10033438939633 -2.8806012487978325 29.382052443831384 -5.3396463792146145 9.10033438939633 -5.3396463792146145 19.280274427293133" config_type=Amorphous_Bulk energy=-103.30155519016672 free_energy=-103.30155519016672 stress="-0.47042869462930836 -0.0900320187745279 0.046387667193053525 -0.0900320187745279 -0.501852091793242 0.1945173607378146 0.046387667193053525 0.1945173607378146 -0.48866072536245575" pbc="T T T"
C        6.36673000       0.38334000       4.97441000       0.10187064       0.26567961      -0.00078524      -2.62489577      -7.45746255     -12.27596581       6.44132986
C        0.57614000       0.46532000       1.60801000       0.40024167       0.22126722      -0.79335197      -0.74649556      -5.71029199     -10.26847158      -6.51966443
C        4.75409000       3.84822000       1.93411000      -0.67694063      -0.10535542       1.21516803      -5.00143427      -1.75736150       2.80974972      -0.79236871
C        5.96414000       1.12766000       1.28387000       0.64190627       0.20045907       0.41183403      -3.70679310     -15.61097060       1.82248836      -5.96622722
C        3.72692000       1.87361000       1.41252000       0.15570693      -0.50033710      -1.01285912      -4.95586136      -0.98475970       2.81431809       2.58124373
C        2.87941000       0.29846000       4.14221000      -1.11443693       0.17137350      -0.06719521      -4.42161987       4.46580785      -0.23175505       5.37665095
C        4.59222000       6.38383000       2.50338000      -0.12593308      -0.29764006       0.00083225      -4.54502350     -10.09887306       5.02627825      -4.78684684
C        1.67263000       0.41975000       2.26556000       0.82425521       0.28059192      -0.86388707      -1.36231664      15.86611228       1.37637883      11.47584336
C        3.48240000       3.29348000       1.70380000      -0.75084188       0.18784339       0.42784567      -5.33529683      -7.20241327     -27.59811014       1.92853477
C        5.26536000       3.06203000       3.89985000      -0.04669712      -0.00414995       0.09213126      -5.17063561      12.21750386      -5.56749879       9.08405960
C        5.19366000       6.04205000       0.53600000       0.01221443       0.29715466      -0.00627754      -2.03075528       9.06376546      17.99328509       0.39680216
C        4.91066000       1.50567000       2.31530000      -0.67257836      -0.89254753       0.49579853      -5.97239025      -3.10467485      -5.24999281       1.39141536
C        4.50728000       4.95369000       1.02695000      -0.20148896       0.30540697      -0.73535527      -2.67918359       3.05284836       7.04310805      -2.93771743
C        0.37564000       2.59844000       3.68645000       0.67310009       0.48806194      -0.27766960      -4.70286418     -18.15279765      -0.48567515      10.23967501
C        2.21134000       3.51102000       2.09637000       0.42747083      -0.26405202       0.17332026      -3.87970613      -3.52111323      11.42694092      -4.02954593
C        2.24151000       0.89054000       0.95924000      -0.67307523      -0.55749809       0.11697452      -2.43800545       2.30277896      -1.98089136       3.79431394
C        5.00091000       5.19025000       5.73594000       0.85696611      -0.11363360      -0.92971125      -3.02339930      -2.69465441      -7.19236113      -2.39629357
C        3.53894000       1.37732000       5.01113000       0.91637974      -0.54868518      -0.79566270      -5.28064607       1.49064252      -6.44217358      -7.34852942
C        5.57320000       5.64110000       4.56637000       0.40859135       0.01007815      -0.05366122      -5.90961571       0.51188712       4.26347546       1.52391985
C        4.81035000       5.40350000       3.39802000      -0.15879879       0.29622542       0.54138692      -5.08944150       9.33787260       3.62623866      14.93071396
C        1.31881000       2.97191000       2.97168000      -0.83520202      -0.57863267       0.32212888      -2.98313535      10.15855124       2.66976320      -5.73228417
C        4.48351000       1.85249000       4.01644000       0.55787468      -0.50908124       0.40297886      -4.81472507       3.40186487       2.71235486      -3.79523305
C        4.84849000       4.07512000       3.29872000      -0.01487793      -0.36480823       0.23379770      -4.80315811      -6.86885168       2.89557628     -16.40227515
C        1.62164000       0.47919000       4.51994000       0.15787979      -0.05698949       0.25212460      -2.59842055      -5.48057498      -2.80363909       4.92287957
C        0.45834000       1.44630000       4.34254000      -0.37334353      -0.17219685      -0.24152985      -1.94188626       6.65887164       7.47951090      -4.83292028
C        2.79015000       1.43520000       6.20754000      -0.01922550       0.92557255       1.04087021      -2.57841871       1.94103278       7.79012786      -7.31855157
C        2.88397000       6.30924000       2.82562000      -0.47101778       1.31589301       0.05075432      -4.70543116       8.17525995      -1.65306005      -1.22892433
27
Lattice="6.403228 0.0 0.0 0.0 6.403228 0.0 0.0 0.0 6.403228" Properties=species:S:1:pos:R:3:momenta:R:3:energies:R:1:forces:R:3 virial="26.379653532115288 -2.8806012487978325 9.10033438939633 -2.8806012487978325 29.382052443831384 -5.3396463792146145 9.10033438939633 -5.3396463792146145 19.280274427293133" config_type=Amorphous_Bulk energy=-148.47909224094866 free_energy=-148.47909224094866 stress="0.05481863141590728 -0.021784947205299915 0.043378801135427046 -0.021784947205299915 0.06921065231401274 -0.05361997348425693 0.043378801135427046 -0.05361997348425693 0.025090605531680882" pbc="T T T"
C        7.03696935      -0.42742450       5.26086195      -0.61625984      -3.20543962       1.04330423      -5.69024683      -5.42755995       3.12185046       4.57399917
C        0.78359286       1.00128580       1.80476533      -2.60651156       3.55912760       6.37863351      -6.20128500       7.96364183      -1.93455723       0.97291320
C        4.19924381       4.35435819       1.61758427       0.72762856      -1.62317505      -1.16698132      -5.85086688       3.36847506       2.69495897      -7.08484808
C        5.88484626       0.86359610       1.27876250       1.65906548      -2.36530167       1.42728719      -5.62694927      -9.65890569      -1.58343969      -1.16460985
C        3.45813296       2.03410695       0.95943014       2.59987648       6.50102339       2.51897329      -6.87208712       2.99907582       1.48465690      -2.66537858
C        3.03744725       0.09055921       5.22385365       4.86008941       3.39335566       2.21052712      -5.65232728       5.23043936       2.23588973      -3.80986584
C        3.85277493       6.30672175       2.83344307      -5.57308354       0.66068536       0.24031177      -6.21556033       4.34498366      -2.66392252       1.62708206
C        1.22300808       0.21721095       3.35933172      -5.38321520       1.72581795      -0.49225122      -5.53874691       2.81446696       5.46266106      -4.45819538
C        3.07130059       3.47673271       1.35494813       1.01851038       0.74830122       0.12424084      -6.49083308       2.39931330      -1.27312167       4.80136387
C        5.31032047       3.21147513       3.55672067      -1.03395477       0.92885673       0.43536001      -5.54413436     -11.07476310     -12.08072077       9.50469716
C        5.04125656       6.29571809       0.03615305       3.79661159      -2.79035230      -3.73292103      -4.06261904       2.78423180       3.13116646       2.92800121
C        4.38049966       1.19595730       2.01616468       3.83349915      -3.80230687       0.90049888      -6.96929376      -1.81017949       0.75873376       2.59901081
C        4.51350458       4.95726658       0.21167387       0.46967866      -0.01763640       2.67708748      -6.29804021      -0.41477501       3.61851232       4.86530907
C        0.25116872       2.49120402       4.31418391      -4.23151454      -4.80708328      -0.49399776      -3.91488124      -1.49998737       1.30413295       0.90366319
C        1.69241787       4.02086791       1.48933822      -0.30004010       0.27347584      -2.26162296      -4.91816424      -2.35976063      -0.03984534      -2.12945282
C        2.04041735       1.50699660       0.71921337      -1.87504605       3.70797936       0.94955439      -4.10658229      -2.01805637      -2.59550710       0.86382444
C        4.80895808       4.15923770       5.51826933       2.15951302      -2.13408856       2.72568019      -5.13405469       3.07706751      -9.29075726       2.70225055
C        3.96872168       1.39183655       4.88944088      -0.25562937      -0.33085202      -1.02662035      -5.84174891       1.97029336       2.14362524       0.69589540
C        5.90021319       5.17466794       4.81115716       0.80888546      -3.68339395      -3.88599402      -5.69304622      -5.32875895      -4.45355142      -5.20137377
C        5.13237085       5.37848795       3.29535195       1.86428732      -2.95124154      -1.92990095      -5.41625194       2.31075878       0.72263830       0.34268092
C        0.60454328       3.84204420       2.51868191      -0.12064639       5.90449776      -4.21268032      -4.26333548      19.10983514       3.34478239      -8.76903351
C        4.29463756       1.96198080       3.46048452      -1.57755208       2.80295538       0.20269573      -5.82050724       2.25119501       2.87488367      -0.99865778
C        5.60650629       4.19314177       2.41493403      -1.49241360      -0.87721528      -1.38258101      -6.61699257      -7.82166545       0.35717141       2.26823305
C        1.90994354      -0.48852913       5.80383410       2.43622721       0.06528671      -2.63586681      -4.02717292       0.34745822      -4.53360075       6.38913124
C        0.59931392       0.94728539       4.68799766       3.61456671      -4.11117904      -0.71761371      -5.00032073      -2.00641706       2.70808085      -6.28789164
C        4.71871690       2.40013081       5.99704087      -2.54643304       0.34422146      -1.51211779      -4.44632089      -9.43484263       2.86891013       1.82228116
C        2.72761340       6.28181325       3.80834905      -2.23613934       2.08368117       3.61699462      -6.26672281      -2.11556412       1.61636914      -5.29102926
27
Lattice="6.403228 0.0 0.0 0.0 6.403228 0.0 0.0 0.0 6.403228" Properties=species:S:1:pos:R:3:momenta:R:3:energies:R:1:forces:R:3 virial="26.379653532115288 -2.8806012487978325 9.10033438939633 -2.8806012487978325 29.382052443831384 -5.3396463792146145 9.10033438939633 -5.3396463792146145 19.280274427293133" config_type=Amorphous_Bulk energy=-154.2990698019849 free_energy=-154.2990698019849 stress="0.16699321714739213 0.02246152273092264 -0.02152938740959822 0.02246152273092264 0.13387546647061244 -0.09179119930465013 -0.02152938740959822 -0.09179119930465013 0.01693614103559651" pbc="T T T"
C        6.66515656      -0.37059178       5.64323394       2.95530158      -1.86045768       0.35566152      -6.68683357       1.95895513      -2.45424675      -2.28324116
C        0.76346652       1.29291108       1.87476355       2.17291825       2.32943277       1.22965053      -6.93563948       2.23526423      -4.26625880       0.49680793
C        4.48585033       4.26544518       1.69617021       0.28904006       1.48141064       0.82365793      -5.77418006      -0.80784152      -2.21797890       7.61423257
C        5.90567776       0.68109521       1.30210188      -1.94367165      -0.38522384      -0.36228978      -6.10731645      -5.28724409       2.39855442       1.01503653
C        3.47417632       1.95460393       0.85405027       0.61221471      -3.84373536      -0.67059930      -6.59412261      -2.12027466       3.94323580       3.76110073
C        2.87086493       0.24301399       4.82591108      -3.06209496       1.90286786       0.73563464      -5.53796163      -1.47104763      -0.47712443      -0.11226372
C        4.15801118       6.28401194       3.07954890       1.20421273       2.53026971       1.68225298      -5.14419186      -1.81295488      -3.40757852      -1.81014435
C        1.14603074       0.50463304       3.09936173      -3.06321965      -1.13746278      -4.00955945      -5.91955721       2.92645726      -2.93144112       4.75338567
C        3.07882506       3.59150045       1.72439054       0.19667909      -0.59103688       4.05011329      -5.25945169       4.12459497      -0.70658001      -3.66451856
C        5.65172774       2.71701003       3.32416657      -1.60897478      -0.56012782       0.84821513      -6.53460473      -3.47948204       0.53454637      -0.97841506
C        5.93139059       5.85147156       0.50394641      -4.94717860      -3.36838532       1.31868684      -6.51496011       4.19024739      -0.27613600       4.62843431
C        4.28994375       1.08255854       1.94245390      -2.65521956      -2.25357122       1.94266125      -6.93709291       4.83799393      -0.59938772      -0.55491513
C        4.86039425       4.82708559       0.56756751      -1.65221575      -0.71623207      -0.06811732      -5.57315423      -0.96525684      -1.28499991      -9.16968188
C       -0.19990418       2.14059707       4.52849911       2.18795291       4.34940477       2.52596627      -4.57708925       4.88315216      -1.18030691       0.37108193
C        2.06038187       4.62524529       1.15650552       2.11934613       0.93652977       0.55086211      -4.48070392      -2.48039050      -4.45388970       4.00640177
C        1.86645994       1.94564075       1.02153462       3.54225608      -0.94106157      -1.41062583      -4.07691857      -1.93974589       0.33479551      -1.82742688
C        4.63925854       3.72606770       5.75123705      -1.43184318       2.11928089      -3.45273330      -5.41780839       4.75648153      11.76179548       0.94126559
C        3.63523485       1.74901854       4.48636265       5.04496742      -0.27044671      -2.20315451      -6.39089132       0.06224045      -3.94742574       3.57114655
C        5.59145853       4.87875061       4.95332967      -3.40732025       0.56427000      -0.23332537      -5.38535575       3.55154197       2.40650823      -1.81190420
C        5.48483641       5.23540523       3.51303715      -1.78336596       1.05068888      -2.12950038      -5.77235606      -6.96945735       1.37019416       3.78372308
C        0.56760328       4.71516381       1.67562855       0.79865620      -1.73451336       0.43361330      -4.32114557      -1.62940541       1.60980754      -3.07829075
C        4.39356783       1.99901666       3.13023213       0.92300912       1.34803354      -2.18620339      -6.14640121       0.00781037       0.82277542       2.91828738
C        5.65888425       4.09012185       2.70487442      -0.61356619       1.42010660       1.49483141      -7.25624708       1.87226985      -1.30773393      -4.51170558
C        1.85954060      -0.24141783       6.02732859       0.41406179       0.90636839      -0.06133821      -3.85349373       0.20301055       1.63421218      -3.61491856
C        0.57517387       0.80693616       4.47519691       0.61416975       0.59137925       1.68818176      -6.20251077      -5.12550027       3.44972329       0.77556686
C        4.15885095       2.43547396       5.86685367       0.29359906       0.41827292      -1.68130748      -6.34675312      -4.87160153      -6.02318618      -2.44299502
C        2.47557756       5.80796144       3.51368349       2.80028566      -4.28606137      -1.21123466      -4.55232852       3.35018283       5.26812622      -2.77605007
27
Lattice="6.403228 0.0 0.0 0.0 6.403228 0.0 0.0 0.0 6.403228" Properties=species:S:1:pos:R:3:momenta:R:3:energies:R:1:forces:R:3 virial="26.379653532115288 -2.8806012487978325 9.10033438939633 -2.8806012487978325 29.382052443831384 -5.3396463792146145 9.10033438939633 -5.3396463792146145 19.280274427293133" config_type=Amorphous_Bulk energy=-158.20047611392616 free_energy=-158.20047611392616 stress="0.09669947944796743 0.003730208423457792 -0.05522785697207363 0.003730208423457792 0.06342582779603831 -0.09427352165554823 -0.05522785697207363 -0.09427352165554823 -0.01491724455192238" pbc="T T T"
C        6.52941355      -0.37582569       5.31562560      -1.75827039      -2.72035364       3.50339337      -6.05641093       2.84547651       1.56803192       3.15922479
C        1.08344598       1.00990752       1.63266038       2.24960959       1.13290408      -1.39221584      -6.69272417       0.60491932      -2.96901094       5.11876248
C        4.06436082       4.14187721       1.91027185      -0.49961409      -1.99061302       0.00235024      -6.06331353       1.97624022      -1.72076013      -6.26776535
C        6.00423770       0.67781394       1.21790958       0.65128708       0.43927191       0.13138423      -5.49096459      -4.99567386       0.19474260       3.48904206
C        3.64603815       2.06159594       1.09039950       0.07089212       1.37641369       0.33978487      -5.92027591      -4.56163446      -2.05210700      -0.92288527
C        3.04752788       0.25135240       4.83156844      -2.06902214      -1.12310898       0.32246636      -6.31604371      -3.10265458       1.90210077       0.39058151
C        4.15226099       6.26668712       2.79428765       0.94639344      -1.48577545       4.30796874      -6.03106783      -9.21875671       0.13188412      -1.18472056
C        1.46801260       0.20369182       2.99545387       2.35036097      -3.58763700      -0.42460099      -6.38343677       0.61152248       3.72611646      -5.14621061
C        2.70257337       4.41332727       2.33806442       0.36859301       1.04533187      -0.61844911      -5.04321053       2.00407675       0.55297004       3.18281329
C        5.63640359       2.74325963       3.40690380      -1.70970777      -0.37356861      -1.28087102      -6.22896620       6.51478882       5.10270097       3.29710358
C        6.00146885       5.63516510       0.60120407       0.65317269      -0.06420800       1.77267186      -6.16391592       0.77098904       0.25295686      -2.06711469
C        4.46513220       1.12871272       2.12726095       1.18316225       0.73533779       0.05254347      -6.98649317      11.31421165      -0.81413330      -6.65575184
C        4.54080741       4.60451565       0.52556635       0.02798743       2.40803272      -2.06990603      -5.03388261       4.06656343       6.30143624       2.52470116
C        0.57070582       2.21971230       4.17013741       0.57276574       0.05008346       0.44566653      -4.53992328      -4.45199018       0.12412170      -2.67195500
C        1.52703573       3.78718373       1.85230037      -2.86753926       0.45904756      -1.51676206      -5.03176023      -0.55487028       1.91350359      -1.48226245
C        2.16457836       1.51470040       0.75325897       1.54493537       0.98985988      -3.41540663      -4.46580489      -0.32248847       1.08148749      -0.97899366
C        4.54145341       4.07960215       5.56392054       0.74054479       0.08773540      -1.64896251      -5.16852398      -1.38171239      -0.79569790       3.55974265
C        3.95752568       1.55219683       4.83455123       1.77346215       2.72729911       0.48202892      -6.69612101      -2.41939910      -2.26441816      -0.91860759
C        5.29751348       5.36427535       4.80864536      -1.31754068      -0.35000197      -1.44818591      -5.84566589      -3.48330238      -4.13186949      -0.91798111
C        4.99414834       5.34529637       3.44357584       0.37882127       1.23471776       2.05390156      -6.41524132       5.21304791       0.85380896      -2.69472378
C        0.25615542       4.51013358       1.75269106      -1.20714573      -2.73879043      -0.96154383      -6.03785027      -4.28622734       1.66879037      -1.27157071
C        4.63564726       1.80848344       3.42770752      -0.59169221       2.08847807       3.00172330      -6.18993212      -0.92408840       3.72200592       2.01271673
C        5.47206508       4.25188340       2.66541799      -0.04948816       0.55897406      -1.46246087      -7.39764327      -0.41220647      -8.23308788       2.06487834
C        1.77280882      -0.07116727       5.70770522       1.39178412      -0.94350899       0.73239890      -3.75864199       4.63850726      -2.11255162       6.05393089
C        0.73988982       0.73508636       4.07813224       1.03706709       2.46609808      -0.49950643      -5.99282585      -4.97580875       1.98020538      -0.61259769
C        3.94418526       2.61754281       5.98143956      -0.41147700      -1.34512017      -1.72114387      -6.11121562       3.03835977      -3.25313974      -3.58245381
C        2.83304446       6.36171993       3.41531023      -3.45934168      -1.07689918       1.31173275      -6.13862054       1.49211022      -2.73008723       2.52209663
27
Lattice="6.403228 0.0 0.0 0.0 6.403228 0.0 0.0 0.0 6.403228" Properties=species:S:1:pos:R:3:momenta:R:3:energies:R:1:forces:R:3 virial="26.379653532115288 -2.8806012487978325 9.10033438939633 -2.8806012487978325 29.382052443831384 -5.3396463792146145 9.10033438939633 -5.3396463792146145 19.280274427293133" config_type=Amorphous_Bulk energy=-161.17533335128144 free_energy=-161.17533335128144 stress="0.15270097017145626 -0.0010704086517840043 -0.07357130166846221 -0.0010704086517840043 0.02762568333637359 -0.13671434201580512 -0.07357130166846221 -0.13671434201580512 -0.09607022938732536" pbc="T T T"
C        6.75379277      -0.36384303       5.49033252       2.18898965       1.30042144       2.05262546      -6.96666469      -1.38838910       2.59296349      -1.36595138
C        0.92138459       0.88918633       2.03659659       0.87185649      -0.58942990       2.32844061      -6.86537643       3.39740933       3.13555731      -8.18650218
C        4.30377860       4.33741134       1.69929811       0.39625454      -0.46423641      -0.82357146      -6.15263201      -5.09213812      -4.31425763      -7.15174401
C        5.97438913       0.55933588       1.34978328       1.84211548       0.51464008       0.11701250      -6.46050863      -0.89940209       1.64110122       4.14789321
C        3.51196586       1.68731962       0.98153491      -2.33408305       0.37441171       0.87700027      -6.57977430       1.18542150       1.01121811      -1.01647270
C        3.05018347       0.44507867       4.91879694      -1.90828428       0.03102323       0.14546710      -6.28182170      -2.90086576      -0.92227128      -0.75108976
C        4.12309709       6.10648706       2.97774986      -0.76328948      -1.39715202      -1.31757627      -6.17634483      -1.06408761       4.86571662      -5.62721754
C        1.27901337       0.43350721       3.26605883      -1.00732809       2.42924117       0.17302319      -6.72514873       0.41246456      -1.43950914       3.30741072
C        2.84108887       3.90003893       2.04792675       1.77155408      -0.91226154      -1.98380509      -4.79151087       1.14403126       1.81532183      -1.27236739
C        5.76894412       2.69195909       3.15204609      -0.28814882       1.11383952      -0.90322966      -5.93583524      -3.53324418       2.24207792       2.59202957
C        5.95121424       5.81366910       0.45250952      -0.09532999      -0.96993467      -1.83552617      -7.24960700       1.57160785      -0.84494032       0.93481961
C        4.49976550       1.07349936       2.04930181      -0.11784181       0.56561142      -2.06525707      -7.21793144      -0.82652940      -7.50306028      -5.05346983
C        4.66307310       4.96019033       0.44623905       1.81504095      -2.73384206       1.90027224      -5.60776216      -1.81688251      -0.40309453      -0.86425672
C       -0.10399392       2.13940904       4.54739741      -0.80463737      -0.71414716      -0.79229262      -4.33329567       0.56474834       0.62494866      -3.76916299
C        1.64468128       4.33666505       1.19461295       0.83065437       2.26586491       0.18201664      -4.67282092       0.60057163      -1.45228944       0.02296488
C        2.06302368       1.71121197       1.21434645      -0.08818167       3.32967632      -1.85114453      -4.49735001      -4.42472558      -0.17981287       0.66491296
C        4.76506169       3.99044088       5.76940793      -0.18996419      -2.30886781       0.10317119      -5.29643845      -0.37495942       0.59652363      -0.56485547
C        3.88092292       1.71965811       4.79828093       1.48703751      -0.83294516      -0.32805100      -6.17100115      -3.54809122      -5.45378261      -2.61676156
C        5.72780315       5.05837931       4.70619615       0.34883565       2.15814100       0.67923034      -5.55733950      -3.04136992      -3.91771271       5.49041922
C        5.18020280       5.17385255       3.40215398      -0.41876112      -2.19247612       0.57513336      -6.53003116       6.69523705       3.69604907       6.80777150
C        0.14119533       4.49297075       1.24903915      -1.52573681       0.12165461      -1.03816633      -5.85375698       2.30817518       2.79025743       2.48324243
C        4.41425709       1.96015941       3.12589244       0.57837166       0.77498302      -1.63402239      -5.10491897       5.69134880       6.80997927       7.23105537
C        5.64269428       4.09415908       2.49641734       1.09244086      -0.17481650      -0.09223310      -7.44207331      -1.40571275      -2.81215257      -0.48921453
C        1.90413903       0.03585487       5.88307883      -2.21274608      -0.34881183       2.87781514      -4.09179689       1.11583823       0.30349714       1.46810036
C        0.39727610       0.77912736       4.38507501      -1.70985471       0.04387607       2.45105424      -6.41654595       2.23523993      -2.96597379       2.21454812
C        3.99259724       2.48992525       6.00729633      -0.39170345       1.56687491       0.77096091      -6.26039414       3.98112376       1.71703565      -0.78832382
C        2.75688862       6.32307650       3.59460085       0.63273967      -2.95133824      -0.56834753      -5.93665223      -0.58681974      -1.63339016       2.15222192
27
Lattice="6.403228 0.0 0.0 0.0 6.403228 0.0 0.0 0.0 6.403228" Properties=species:S:1:pos:R:3:momenta:R:3:energies:R:1:forces:R:3 virial="26.379653532115288 -2.8806012487978325 9.10033438939633 -2.8806012487978325 29.382052443831384 -5.3396463792146145 9.10033438939633 -5.3396463792146145 19.280274427293133" config_type=Amorphous_Bulk energy=-162.7815338053005 free_energy=-162.7815338053005 stress="0.1368608282053961 0.023984686406977887 -0.01142468247448184 0.023984686406977887 0.11017276189579986 -0.08057280900141939 -0.01142468247448184 -0.08057280900141939 0.024657129133403764" pbc="T T T"
C        6.66838069      -0.27339845       5.48955161      -1.72354169      -2.73975914       0.28531105      -6.86332136       0.42326618      -2.84646088      -2.73195673
C        0.95743268       1.13730735       1.86971204      -1.03304449      -2.57457363      -2.62675727      -6.83417004      -3.56284878      -3.12026606      -2.47754771
C        4.46299404       3.86158708       1.75165711       0.75875100      -0.00115690       1.07092487      -5.89423516      -0.43620918       3.05593117      -3.44009840
C        5.89858567       0.88722416       1.19816452       2.41007472       1.61065536       1.35862545      -5.88654016       0.59096320      -3.49771500       4.76697819
C        3.43125401       1.81486555       0.93547453      -0.18144301       1.37878739      -0.30416107      -6.53659025      -2.04493185       1.67812034       1.06973954
C        2.91591262       0.23881976       4.76735074       1.24833809       0.05142166      -3.58511540      -6.30364673      -0.47899574      -2.46772005      -1.81867548
C        3.92074037       6.11096728       2.60617665       0.36136129      -1.74775918      -0.23038210      -6.13685363       3.35344685       1.95209182       0.51971151
C        1.34048665       0.41216541       3.02900104      -0.29291758      -1.10677618       1.31662086      -6.76737662      -2.98880546      -1.01898113       2.77539812
C        3.02993707       3.95970453       2.23118553      -0.38371644       0.54926885       2.88057438      -5.02563623       0.02318041      -0.06009381       1.32768425
C        5.55514127       2.87669363       3.60920300       3.05266775       0.73661911      -0.93133837      -6.34274666       8.19383083       2.53009791       2.09502312
C        6.01423917       5.81007013       0.53433076      -0.29031367      -0.45779559       0.50002987      -6.66274027       1.92320455       2.45779886       3.03565825
C        4.50848362       1.18065770       2.04036740       0.30384457       0.54382375      -0.37768760      -7.58595720      -3.00239973      -1.95787752      -0.82736109
C        5.00773569       4.62863348       0.55191384      -0.76656289      -0.45886183       0.97153861      -5.53755358      -5.61488575      -2.96994983      -2.23850563
C        0.33478698       2.24255023       4.35720603      -0.91343795      -0.45915556       0.68985590      -4.72159026      -2.40458626       0.77301278      -1.47795966
C        1.85508329       4.39806192       1.40709667      -1.41128493      -1.31931321       0.56815403      -4.76249633      -0.57477527      -0.70093873      -0.12230055
C        1.84478717       1.94297815       1.21417041       0.81834796       0.26216144       0.26454882      -4.59178040       5.72965105       4.29965596      -2.28446311
C        4.55762807       3.93239066       5.69199725      -0.52947656      -0.60743777       0.30006906      -5.23680896       1.52241320       2.55573634       1.21163506