36
Lattice="6.163743 0.0 0.0 0.0 6.163743 0.0 0.0 0.0 8.218324" Properties=species:S:1:pos:R:3:momenta:R:3:energies:R:1:forces:R:3 virial="7.324435467915814 -1.3691905013204728 1.5736151506864136 -1.3691905013204728 -10.260009212337337 7.134474633720599 1.5736151506864136 7.134474633720599 -2.2939334134585585" config_type=Amorphous_Bulk energy=-175.71446352009377 free_energy=-175.71446352009377 stress="-0.27429760302486056 0.0659879275498153 -0.16140577963317193 0.0659879275498153 -0.3611820974473938 0.1611288413567597 -0.16140577963317193 0.1611288413567597 -0.5775000669839967" pbc="T T T"
C        0.57378000       1.17009000       4.07436000      -0.30313099       0.39023802       0.41664619      -6.17812005      -4.03067705      -0.64164556       8.55703242
C        0.89629000       4.88797000       0.07276000       0.35387499      -0.20816188      -0.60880528      -6.17145139       0.92107328       1.35671887      -3.78282522
C        2.54043000       3.44895000       7.34780000       0.37310041      -0.16705195      -0.31098973      -5.41098192      19.47974752       3.11528919      19.33464050
C        4.84841000       2.41263000       7.22344000      -1.38548253      -0.56313340      -0.90324679      -5.84128074       4.16429364     -43.45133126       4.72353461
C        5.28632000       0.52287000       0.98788000      -0.36743960       0.45267854       0.70788740      -5.09596478      -6.82120549      -9.62003778       1.43953879
C        4.07918000       0.53219000       1.98739000       0.85213369      -1.22161640       0.31345705      -3.90908396       0.38587345       2.76306772      -1.78891874
C        0.94356000       4.03255000       5.77537000       0.02528327      -0.18179008      -0.07973719      -4.49270713      -0.83125737       5.80167504       1.76066014
C        3.03133000       5.98555000       7.72892000       0.22475203      -0.01237819       0.30619540      -3.25749710       5.31659800       1.90732613      -5.26454631
C        2.54563000       3.83700000       2.95925000       0.86064086      -1.42107982       0.70326449      -4.55568559       5.91996702       5.65419080      -0.57654943
C        1.73480000       0.41012000       4.39522000      -0.38169127       0.42787545       0.10507804      -2.85677778     -18.07915897       5.67997392     -39.39779162
C        4.38668000       2.75246000       4.64926000       0.78437068       0.70384490      -0.10295030      -5.65937653      -1.61701418       5.18004149       2.02325353
C        2.04413000       3.34240000       1.75662000      -1.27987335       0.84442899      -0.26309192      -6.83641014      -4.24585234     -11.19063859      -2.34051132
C        4.28023000       5.50125000       4.34532000      -0.42965417      -0.39144617      -0.01174960      -4.64066726     -14.86443673       7.66742535      12.44900030
C        1.00174000       5.53857000       6.58505000       0.47635108       0.97030203       0.61441105      -6.72677900       0.47014621      -4.67000914       5.08432646
C        4.73002000       4.36013000       6.64212000      -0.27662347      -1.30341389      -0.31801161      -5.54718982      -2.36045337      38.77094424      -2.42368354
C        1.94183000       3.88027000       0.38394000      -0.10220499       0.73022190       0.31988959      -6.66238359      -6.45613259       5.23042393      -1.11749997
C        6.09101000       0.39639000       6.35860000       0.42237365      -0.05560353       0.22057916      -5.14184193      15.83563475     -31.65050374      16.90078104
C        4.92413000       4.11009000       5.33541000       0.15685140      -0.08570901      -0.26707977      -6.16093693      -7.99011061       5.34544785     -11.31100843
C        4.65572000       5.75968000       7.16090000       0.55808806       0.00988140      -1.02749971      -5.04746932       3.36380053       2.79008321      -2.57939944
C        4.81604000       1.86793000       5.73643000       0.36627799       0.61235934       0.95725596      -5.34785279     -25.01082242      28.19060657     -11.04880491
C        5.59863000       3.80368000       3.34960000       0.28800591       0.12751453      -0.34655697      -4.29462879      14.02262731     -11.37283726      -0.00176419
C        1.11832000       2.08866000       2.02172000      -0.15647476       0.14456279       0.23474353      -5.49983726       4.02153807       4.45037572      -0.10163390
C        2.89866000       0.46052000       4.97999000      -0.10010599       0.43453440       0.56055111      -3.12042066      22.43699340      -7.54515638       0.94189515
C        5.79133000       5.09356000       2.55370000      -0.10990248      -0.73918673       0.54924730      -5.52045719      -3.32574687      -2.50020285      -1.34564241
C        3.02606000       3.07656000       4.13231000      -0.01024298      -0.45567636      -0.95813659      -5.86791659       1.44607139      -3.10015117      -5.48115893
C        5.75331000       1.64757000       8.03350000       1.23359849       1.09253654       0.19002194      -3.50196094      -0.35726874       1.61417920      -7.16072258
C        2.20894000       3.40741000       5.11665000      -0.40762414      -0.82122238      -1.26540028      -2.27143114      -2.01539304       3.83590188      -3.06095981
C        0.10200000       1.61554000       1.18283000       0.30537242       0.08549408      -0.80748267      -2.56539135       1.61024921      -0.27283888     -16.96262427
C        2.08588000       2.85652000       6.37078000       0.04700026       0.15886476       0.22225442      -1.97152762     -11.31161008     -11.36397381      -1.20951218
C        2.39572000       6.01911000       6.19986000      -0.70166884      -0.45072046       0.60371050      -4.76684399       8.28419187      -9.09631356      36.65355053
C        0.31271000       2.12372000       3.17664000      -1.07243658       0.49509548      -0.58410762      -4.88110944      -1.16724449      20.96741784      15.46012103
C        4.52840000       5.82420000       3.02899000      -1.28709536      -0.10219220      -0.27493650      -5.73893288       8.07574047      -4.26915612      -3.48127034
C        4.03542000       3.48001000       7.54095000       0.57577936      -0.37160753      -0.31351314      -5.13919264      -4.57361926       2.03176182      -0.63631272
C        5.91820000       5.18782000       1.04323000       0.16723132       0.40040706       1.76134819      -6.12338733       0.89736558       4.72543005      -2.70589765
C        0.02556000       4.44826000       4.80391000       0.06364178       0.01609296      -0.29922925      -3.88357973      -1.31936081      -2.87262570      -6.07362861
C        5.96069000       1.22889000       5.21665000       0.23692386       0.45505683      -0.04401641      -5.02738820      -0.27454731      -3.46085903       4.52433200
36
Lattice="6.163743 0.0 0.0 0.0 6.163743 0.0 0.0 0.0 8.218324" Properties=species:S:1:pos:R:3:momenta:R:3:energies:R:1:forces:R:3 virial="7.324435467915814 -1.3691905013204728 1.5736151506864136 -1.3691905013204728 -10.260009212337337 7.134474633720599 1.5736151506864136 7.134474633720599 -2.2939334134585585" config_type=Amorphous_Bulk energy=-216.85307135445595 free_energy=-216.85307135445595 stress="-0.0525116021513732 -0.014443548326996757 -0.04441765458618188 -0.014443548326996757 -0.013425257555652883 -0.018335757846110044 -0.04441765458618188 -0.018335757846110044 -0.04284160371621168" pbc="T T T"
C        0.74609572       1.45616192       4.17866288      -0.13872492      -2.74482497       1.25072300      -6.81277757      -5.36051919      -0.21432848       5.96791066
C        1.15197964       4.97966657       0.01878788       1.18952494       2.10005770       0.08994341      -6.89615640       1.81460580      -0.92729448      -0.69944739
C        2.71083047       2.85106242       7.71399130      -0.18844337       0.06843520      -0.07440127      -5.73553068      -2.52317845       2.09823641      -4.47499863
C        5.07539770       2.33217082       7.09387743       2.09902096       1.06460926       7.39393980      -6.13028357      -4.21651538       0.61027929      -1.86632114
C        5.68258308       0.57034745       1.19117447      -1.46554578      -1.22147845       1.20735324      -6.58863652      -2.62150012      -0.86251438      -0.92332210
C        4.44466371       0.55190384       2.16723492      -1.11994530       2.07159149       2.64041888      -4.25260240       1.68471076       0.45536205      -0.38889616
C        0.90699436       4.35503505       5.81442319       0.12098494      -1.07705091      -2.62937282      -6.59091296      -0.74116830       3.51500985      -3.66276597
C        3.54700545       6.89570665       7.12929247      -1.38022140       2.69308867       0.36660721      -4.47061792      -0.98727426      -3.71069541       1.52287626
C        2.60247030       2.76783616       3.09010011      -2.24195102      -2.05993187       2.25239181      -3.74536311      -0.36000725      -1.15900973      -7.47505208
C        1.95006322       0.68241653       4.01730239      -1.22316351       2.81358473      -0.96227746      -4.53847071       2.14697549       1.48948688      -7.36214344
C        4.21113592       2.97552539       4.90746038      -0.00460364       0.01064795      -1.46522695      -6.34858926      -4.81002128       3.11350234      -3.84073125
C        2.05340135       2.99236582       1.60934232      -0.80219573      -0.27013742       1.95077879      -5.54329242      -4.15253852       0.51495082       5.77844278
C        3.79102355       5.30253542       4.35190966      -2.47562965       2.36085875      -2.50821251      -6.54961031       5.24579370      -2.31703526      -0.55605139
C        1.14864442       5.56757325       6.90722573      -0.99938026      -0.59809618       0.93963470      -7.83065617       1.17970781      -1.49152510      -6.62202403
C        4.53549822       4.69771993       6.77099993       2.65389081      -1.34457277      -0.61900762      -5.99453408      -4.19613418      -9.91689244      -3.30152373
C        2.02853346       3.72107362       0.33470256       0.56875267      -2.21193753       4.38174468      -6.05204404      -1.36820240       2.11957951       6.08892402
C        5.92034547       0.24518109       6.52444102      -2.22141301       0.50426824      -2.03745481      -5.92159960       7.14931868      -1.69975114       1.40187699
C        4.80466260       4.31086052       5.26368988      -5.00823981       1.90333217       2.52959807      -6.85787925     -17.23491782       4.34041514       6.71957333
C        4.70395826       5.98452432       7.18909849       3.23644784       0.14496171      -0.53531178      -6.51340935       1.25051451       5.76798720       1.21717386
C        4.54183759       1.82880424       5.56843429       1.72446208      -1.13021663       3.11646227      -5.36387720      10.24773816      -3.70706456       5.84989485
C        5.85174052       4.01898515       3.45396214       2.22841498       0.81853074      -2.17716677      -6.34960022       7.58628929      -5.68889790      -2.05522122
C        0.77078842       2.31429273       1.86313518       1.27783680       0.49515037      -0.36550318      -5.88740355      10.55176330      11.43451028       4.06299810
C        2.99729148       0.16087438       4.85201031       1.40368848       3.62472882      -3.52066832      -6.64574164      -8.30672840      -0.43867655       6.02198762
C        5.34638952       4.76238547       2.18946378       0.67501339      -2.77261428      -2.61116349      -5.24937841       0.51354194      -2.42184743       3.56502000
C        2.81902118       3.02670001       4.41073540       3.55376803       0.08091125       0.24014754      -6.43082143       1.61717123       3.10158901       8.91987784
C        6.41805614       2.21540512       7.67493139       4.52160270      -3.26362923      -1.52629528      -6.60327449       1.44547350      -1.49931949      -1.59596273
C        1.70241133       3.17365988       5.63003439       0.76568365       0.59743521       1.30832029      -6.62360899       1.95385687       0.15006268      -5.49647683
C        0.25900313       1.72812572       0.87068566      -0.77681493       1.25167164      -1.79176834      -6.55729076      -9.03059158      -8.44125569      -6.26136687
C        1.69519828       2.22398911       6.65088493      -4.55973509      -0.97235821       3.19497596      -5.64592491       0.33383731       0.48434084       7.24640939
C        2.46787908       6.30688070       6.29936970      -1.75035444      -1.36942182      -2.19947210      -6.29733634       2.52253264       2.43669127       1.69583604
C        0.20667275       2.55570212       3.17612811      -0.36936843      -3.90389933       1.79541575      -6.71094187       0.76781617      -2.07295903      -0.71498952
C        4.10967485       5.40736808       2.95621508      -0.51715568       0.99329837      -1.17476582      -5.86533307       0.12190973       2.43849181      -6.26157352
C        4.04082173       3.37319892       7.58521088       0.79054248       2.11151294      -3.59924822      -6.07492150       6.93650680      -1.01095734      -2.92329111
C        6.18555665       5.39037554       0.81878173       2.50505140       0.49119148      -0.29463352      -5.91240012      -3.52445888      -2.10523599       6.39946537
C       -0.17741967       4.57646889       4.86370476      -5.09205541      -1.51285728      -1.34808260      -5.49519363       9.23460574       0.01520592      -5.74267955
C        5.86088012       0.80823717       5.11994528       3.02025526       0.25316019      -3.21842253      -5.76705690      -4.87091343       5.59955911      -0.23342845
36
Lattice="6.163743 0.0 0.0 0.0 6.163743 0.0 0.0 0.0 8.218324" Properties=species:S:1:pos:R:3:momenta:R:3:energies:R:1:forces:R:3 virial="7.324435467915814 -1.3691905013204728 1.5736151506864136 -1.3691905013204728 -10.260009212337337 7.134474633720599 1.5736151506864136 7.134474633720599 -2.2939334134585585" config_type=Amorphous_Bulk energy=-223.51912273876616 free_energy=-223.51912273876616 stress="-0.03167390715250347 -0.0782806420967673 0.09108096861445573 -0.0782806420967673 -0.06636419392869405 -0.08784573348408439 0.09108096861445573 -0.08784573348408439 0.013689320698184312" pbc="T T T"
C        0.29438534       1.09882086       3.87208488       0.09178116       1.25258457       1.53526981      -6.55963926       2.80861743       0.01385296       0.23526968
C        1.19841146       4.84322764       0.27145987      -0.30237425       0.32823688      -1.25086068      -6.37833866      -1.26605949      -0.02770409      -0.88716665
C        2.88479642       3.28365004       8.00718549       0.34533047      -0.02614468       1.59358286      -6.64028825      -1.34652025      -5.53293578       3.39269267
C        5.30724079       2.76881103       7.09714005       0.77357745       0.14170316      -0.46766302      -6.58133873       2.37888188      -3.35493536      -3.67484770
C        5.44224212       0.42866291       0.85176688      -3.93972379       0.08135226      -2.22753405      -6.55688866       5.36086941       2.43187495     -12.11102967
C        4.38289907       0.74038254       1.64268248       1.14226193      -0.48755085      -0.70370944      -3.67440834      -4.73700498      -3.31102386       8.08466259
C        0.93440287       4.33213437       5.73401238      -1.77342379       1.45208923       0.05779405      -6.33129827       0.29254438      -3.34103074      -1.93558583
C        3.27159211       6.80202154       7.00537310      -2.18703900       0.69258321       1.96138875      -4.44367750       3.18464135      -1.98353297       0.35778959
C        2.47954677       2.18596621       3.36003963       2.07484749      -1.83183645       2.26122533      -6.35701663      -0.90186392       0.35838918      -4.98883991
C        1.84503953       0.82940036       3.67313551      -1.85292322      -3.29048616       2.68551795      -6.30184879      -3.25238154       0.59775596       5.04593816
C        4.32890595       2.98146136       4.83887151      -0.53400328       0.36479877       0.80501395      -6.00908643     -11.38394709      -1.99325456      -1.49769603
C        1.80559550       3.10346004       2.05467629      -1.11307017      -1.72990975       1.20454610      -5.96432790       0.55486666      -7.26306975       2.27780492
C        3.90433607       5.55497143       4.37514619       1.96184584       0.37103452      -3.15134066      -6.69135493      -4.88471867      -0.65703611      -3.40715136
C        1.30563683       5.25447594       6.85105642      -0.30755548       0.66513247      -1.29576586      -6.73030672     -13.26340441       6.98389506      -1.70257704
C        4.56070848       4.74922893       6.69543772      -0.87815574       0.20361270       2.08304642      -5.79389332      -1.47784457      -0.26967563       3.76449637
C        2.23760337       3.81390055       0.95677084      -1.91486585      -1.01824586      -0.07242629      -6.31617224      -1.35572048       8.22667497      -4.16972877
C        6.00236706       0.21637119       6.46516058       2.82648526      -2.95008889       0.84467530      -5.15488622       8.14198452      -6.58400777       1.54802322
C        4.55692855       4.48410209       5.15686828       1.90007591      -0.10804290      -0.47320874      -7.64081344       0.00250840       1.83092697       4.40152473
C        4.78450507       6.19834656       7.26858906      -0.09686153       1.00669167      -0.94688980      -6.24444534      -2.52492110      -0.78354364       2.33962819
C        5.07781047       2.23350501       5.75740736       1.00867267       0.70226476       2.32745750      -6.82436747       0.50096519      -2.47461374       0.63926055
C        6.03932374       3.62493389       3.27710234       3.48778462      -0.85762091       1.40855078      -6.17937552      -8.38562677      15.51701259      11.10746019
C        0.59271967       2.38023032       1.76190676      -0.49465962      -3.00853409      -1.81866182      -5.70579349       9.16337285      -8.93078588     -10.90245025
C        2.51176683      -0.11849199       4.83720167      -1.22158782       0.64326210      -0.88545867      -6.61450162       4.14442710      -0.70138453      -8.63428462
C        5.35326055       4.54944814       2.22102884      -2.62534586       0.74666482      -0.49219725      -6.01017808      -1.49853167       1.65851631       1.11963602
C        2.91940788       2.90456149       4.45515030      -3.00032467       0.25339750       0.25101679      -6.62393308      -1.71700763      -0.21318006       8.10338324
C        6.65479462       2.44317818       7.64963691       1.12870375       1.75666181       0.10492463      -6.53754536       0.48506332      -5.15095718       3.66578740
C        1.88675456       3.23613298       5.73077068       1.60776566       3.06302451      -1.74517037      -6.50942910       0.94666512      -2.98514982      -3.42422460
C        0.41232378       1.57882292       0.65287361      -1.49503447       1.41092571       0.18476665      -6.46888625      -3.26868969      -0.42222150      -1.64053641
C        1.96111008       2.54496940       7.05686254       2.20796521      -1.72419745      -3.90473594      -6.45631741      -0.89815392       4.03468544      -2.47995049
C        2.29259432       6.04686353       6.19904845      -0.20329123       1.53558650      -2.15092539      -6.65750996       3.58124199       6.53131850       5.63762593
C       -0.10783150       2.23661547       2.88070578       0.33414966       0.25915448       2.78415783      -5.74287365      -4.01627683      -3.83967243       8.56100287
C        4.14727593       5.60008997       2.81584606       0.35367142      -0.66160229       0.96578152      -5.68170561       3.11520703      -0.20710451      -0.86446959
C        4.25371684       3.55050818       7.80953216       1.36523605       4.11857519       0.91150964      -6.06728998       3.20658001       4.26694560      -6.15569375
C        5.94712136       5.19318251       0.91334744       1.87533787       2.16285795       1.63186626      -6.31291610       3.47601410      -1.61865439       3.40606001
C       -0.27305008       4.35733070       4.73352649      -0.42207641      -2.35023506      -0.65684763      -6.03283049      17.03001101       4.69867056      -2.95778150
C        5.91484760       1.07984373       5.32794545      -0.12317625      -3.16769941      -3.35869648      -6.72363993      -2.19578873       4.49495525      -2.25403215
36
Lattice="6.163743 0.0 0.0 0.0 6.163743 0.0 0.0 0.0 8.218324" Properties=species:S:1:pos:R:3:momenta:R:3:energies:R:1:forces:R:3 virial="7.324435467915814 -1.3691905013204728 1.5736151506864136 -1.3691905013204728 -10.260009212337337 7.134474633720599 1.5736151506864136 7.134474633720599 -2.2939334134585585" config_type=Amorphous_Bulk energy=-229.41106207549083 free_energy=-229.41106207549083 stress="0.007450808421339604 0.011673302616940055 -0.013630583223388615 0.011673302616940055 0.030206540139643422 -0.01686140140669902 -0.013630583223388615 -0.01686140140669902 0.03429744628708704" pbc="T T T"
C        0.52392352       1.19743030       3.99870104      -0.69719769       2.09710094      -1.08141242      -6.40261039     -10.47275087       2.50850409       1.16586312
C        1.34308977       4.81670658       0.27090347       0.00679134       1.12814509       1.92459032      -6.13824570      -2.39005659      -0.16675904       1.67530741
C        2.82239626       2.88021476       7.87157657      -1.23546221      -0.18877759       1.46049827      -6.23552868       4.98899793       0.72566708       1.08677292
C        5.33000966       2.67315807       6.91142083       1.80653554      -2.91427170       0.31469229      -6.69959298      -0.69155441       1.86925304       2.75086769
C        5.20323280       0.10344997       0.68244799      -1.27017103       0.37976870      -2.44805742      -7.14197131       3.59625717       2.10027208      -5.41660837
C        4.11464825       0.25869029       1.69977618       2.15579213      -0.09647928      -1.50354806      -4.25036469       0.48734647      -0.43693213       1.65239779
C        0.97184161       4.26796040       5.78600773       0.98341391      -1.16574026      -1.59470552      -6.60115428      -4.46635104       4.51770129      -0.09865806
C        3.36681521       6.82567303       7.27985687      -0.63463019      -0.61571701      -0.12415105      -4.30832202       0.94211423      -0.42475513      -4.22105555
C        2.49425231       2.23892608       3.21661402      -1.59112470       0.85501424       1.19463652      -6.46268153       0.52327144      -0.58220133       0.86265173
C        1.85676025       1.03618524       3.92099451       0.53112180      -1.69896140      -1.65450727      -6.48547148       5.95534236       3.24892753      -5.74471623
C        4.22200671       3.21401069       4.95066019       1.47272287       2.57583721      -0.15495711      -5.78907663      -2.90698011       6.98796726      -6.21330114
C        1.89313335       2.71792685       1.87816651      -0.81857481       0.78641080      -1.75844117      -6.45495228       2.67513419       1.98723982       1.05062400
C        3.84330713       5.71847741       4.27400029      -0.20377329       1.32317725       1.20271217      -6.92154278       3.78106435      -3.93501532       2.21825582
C        1.18801504       5.40849621       6.88224958      -0.00620839      -0.65920752       2.22942931      -7.53362507      -0.30266540       0.75831807      -2.94782835
C        4.30058297       4.79251613       6.74692514      -1.09818103      -0.81371288      -0.21609351      -5.81095890       1.58598945       2.27024905       0.06184899
C        2.40018724       3.67504704       0.76263967      -1.43650296       0.03192090      -0.70854296      -6.21127056      -5.37959275      -0.37551413       1.96262739
C        6.01490933       0.36601531       6.51321387       0.69934270      -0.53529574      -1.06860216      -5.76918632       2.08296118      -2.75126084      -2.46409185
C        4.55159996       4.74731532       5.24724627      -0.56251625      -1.25358074       2.11581230      -7.56408255      -0.60018197      -3.86639181      -0.99770595
C        4.81066875       6.20843550       7.20910190       1.94163617      -1.21739471       0.57653488      -7.11999960      -4.22296977      -3.53410001      10.51576546
C        5.10377812       2.36066326       5.59595548      -3.52156291      -0.73713919      -1.84594572      -6.36127516       0.83030761      -4.05203347       2.03088194
C        6.27495467       3.88194854       3.45105064      -1.17015940       2.20996746       1.40220588      -6.60735208      -6.15684746      -1.43057841      -0.94012606
C        0.58661149       2.24853447       1.78214764      -0.97476690       2.07546553       2.40237308      -6.01478031      -0.21265160      -2.72272501      -4.39380722
C        2.60161402       0.19625949       4.70021372       2.57227084      -0.26996681       1.84286602      -7.02844450      -0.19819082      -2.33689947       8.01445793
C        5.49610569       4.68849643       2.42315148       1.22314103      -2.77361762       0.61873340      -6.47222313       4.54721699      -2.94676664       5.80790014
C        2.76508139       3.09841638       4.40220130       0.88644904       0.40996855       0.65743605      -6.34206429       3.82021267      -2.80342989       4.75003995
C        6.56186380       2.32906567       7.55078302      -0.37297468      -1.57957964       0.22210974      -6.93842692      -0.43988751      -6.40175354       1.62630255
C        1.80524216       3.16940631       5.69693115      -1.27328498      -2.46793554      -1.60049410      -6.39198712      -0.11491902       0.54722124      -3.66652580
C        0.23710836       1.37013521       0.50237403       1.54240891       0.32063679      -1.38234715      -5.94806041      -2.62642969       2.95912764       5.19025332
C        1.75662699       2.46154577       6.93645362      -0.13427627       1.66340807      -1.28948246      -6.76647909       2.39422883       0.48258325      -0.31046222
C        2.30864674       6.31946378       6.31882681       0.19484898       0.91859246       0.74140739      -6.57782315       1.45784006      -0.04624112      -0.24225789
C       -0.00357566       2.34985094       3.07730732       0.87702143      -0.14784940       0.12453660      -6.07926044       0.39994898      -1.39188376       1.25841106
C        4.37718536       5.51430762       2.90952769      -1.53901496       2.64149508      -2.71024945      -6.55161843      -4.14597248       4.27851434      -5.61574026
C        4.26419688       3.44809542       7.60590929       0.59816350      -2.69031290      -1.92596881      -6.32511664      -0.67967665       1.99990763      -5.09973821
C        6.09931704       5.04700391       1.13836086      -2.56219803      -0.36537539       0.76080905      -5.92919533       0.22851170       2.71551505      -3.87348706
C       -0.16124627       4.34393523       4.83362112       1.16594868       0.40432890       2.37057287      -6.60521571       2.91291270       0.33030524      -0.06732000
C        5.78619910       1.13735636       5.23003217       2.44497182       2.36967736       0.90555020      -6.57110162       2.79801984      -0.08203264      -1.36779897
36
Lattice="6.163743 0.0 0.0 0.0 6.163743 0.0 0.0 0.0 8.218324" Properties=species:S:1:pos:R:3:momenta:R:3:energies:R:1:forces:R:3 virial="7.324435467915814 -1.3691905013204728 1.5736151506864136 -1.3691905013204728 -10.260009212337337 7.134474633720599 1.5736151506864136 7.134474633720599 -2.2939334134585585" config_type=Amorphous_Bulk energy=-230.62588687386372 free_energy=-230.62588687386372 stress="0.020567952860305955 0.02037605744061579 -0.0367726005888278 0.02037605744061579 0.014594662717524418 -0.037559549763945294 -0.0367726005888278 -0.037559549763945294 0.03391378264330098" pbc="T T T"
C        0.25030319       1.14684235       3.98388585       0.73178308      -1.57086244      -0.42732017      -6.58318857       3.34701680       1.39751307       2.40417160
C        1.23020562       4.94796568       0.14570839       1.66201755      -1.05698835       0.72036400      -6.31962101      -3.26332569      -2.14270377       3.60981987
C        2.85358401       3.05215946       7.86532297       0.46721329       1.36059015      -1.10568170      -6.58126827       1.42211357       3.58621920       2.74058878
C        5.16606274       2.46467752       7.06408948       0.47424406       1.36464493      -1.32242174      -6.60602806       1.46200753       2.00763390       0.57065889
C        5.37266287       0.49739844       0.76608405      -1.39133525       0.21510494       0.22421122      -7.72250308       0.08121512      -2.34771594       0.57396331
C        4.35289835       0.71870936       1.81738544       0.49999949      -2.93044058      -0.05728571      -3.89633184      -0.94534672      -4.44936332       3.41118913
C        1.06274229       4.39411855       5.41708629       0.85874581       0.35022008       1.26252372      -6.10438055      -2.82138646       0.07854964       2.32763749
C        3.49825416       6.76245151       7.16244216      -1.12727751       0.03216207       0.95984121      -4.61431347       0.15726690       2.92922957       4.03157228
C        2.52194053       2.44749734       3.08829557       0.48413850      -1.44900318      -1.11648729      -5.74298394       4.48789534      -1.88548375       4.20668465
C        1.88681733       1.23413410       3.95611036      -1.32497342      -1.44311696      -0.53449436      -6.21812819      -1.48311113      -3.35707329      -0.54388565
C        4.29502530       3.03593784       5.02520356      -0.29053368       2.01086040       0.69947149      -6.32149472      -3.41266292       4.11645608      -3.37075535