27
Lattice="5.525534 0.0 0.0 0.0 5.525534 0.0 0.0 0.0 5.525534" Properties=species:S:1:pos:R:3:momenta:R:3:energies:R:1:forces:R:3 virial="-3.7407310762837427 -3.9468524469113166 -39.01351991975929 -3.9468524469113166 14.354223218366675 8.740173047719423 -39.01351991975929 8.740173047719423 -12.00222374162131" config_type=Amorphous_Bulk energy=-171.22364869310405 free_energy=-171.22364869310405 stress="-0.07102042890346753 0.05412764919724067 0.2610024988276658 0.05412764919724067 -0.1588964029103429 -0.1709902118925934 0.2610024988276658 -0.1709902118925934 -0.17597316113221012" pbc="T T T"
C        1.43997000       1.73807000       1.70668000       0.57664383       1.02132800      -0.39393749      -6.74846166       0.21495085       0.76619869      -0.11094207
C        1.07386000       0.67210000       3.95388000      -0.17771217       0.84666215      -0.32851958      -7.18663206       0.66845362       2.65669525      -1.74344185
C        4.08710000       0.75921000       4.39201000       0.73853937      -0.15248859      -0.18311602      -6.65356265       2.17009748      -2.81086639      -1.75924160
C        0.02086000       3.33953000       3.84400000       0.05724289       0.70901649       0.93450223      -5.53895407       0.81768825      -1.94978578       5.69789112
C        2.01693000       1.87389000       4.35456000      -0.25718591       0.26561184       0.57572476      -6.35425602       0.44924422       0.77578792       3.88232680
C        3.82838000       4.72720000       1.87588000       0.03304691      -0.48943098      -0.60432800      -6.34112079      -0.96834630       1.76270140       2.77044688
C        1.99787000       3.10237000       2.22889000       0.54277897      -0.06253624       0.35584727      -6.94337120       0.26482063       1.75401817      -0.89850906
C        2.77372000       3.82055000       1.00145000      -0.69657333       1.40942283       0.03822615      -6.96702011      -1.38551856      -0.55189291       3.00451895
C        3.72702000       2.91771000       0.25458000       1.06935959      -0.55997647       0.01242313      -6.73933485      -1.50717820       0.08713861      -3.11263981
C        0.46088000       4.96466000       0.44861000      -0.61751355       0.42465702      -0.07638397      -6.02581505       0.56781956      -1.23640601       0.95696599
C        5.30966000       4.23059000       1.60652000       0.28322026      -0.18713414      -1.24472489      -7.30496398      -0.89528715       0.34041575       0.67145191
C        3.60651000       0.58647000       1.24174000       0.70266319      -1.04040289      -0.09320051      -4.94491391       2.96811306     -12.30514641     -27.49548955
C        4.88350000       2.74663000       1.14242000      -0.43183056       0.05675332       0.44925774      -6.58397606       0.45001592      -0.02874797      -1.39071115
C        4.00837000       3.62848000       4.27212000      -0.31719570      -0.22203525      -0.31734667      -6.87599807       1.59492643      -2.32700711      -2.71147139
C        4.67105000       1.47141000       2.04285000       0.14182991      -0.02422877       0.18021730      -5.84396944       3.27063939       3.11995789      -1.44075571
C        1.10319000       2.87403000       5.00284000       0.15468278      -0.00182960      -0.44308490      -6.67358970      -3.30076704       0.93841963      -3.49179371
C        2.92971000       2.69855000       3.42208000      -0.03715615       0.66396080       0.75088053      -6.13384092      -0.07871807       1.47380782      -0.75989384
C        0.45615000       1.05257000       2.53566000       0.01435056       0.05001975       0.42638896      -5.58797543       1.74288821      -1.36401798       1.59613066
C        2.60408000       0.93956000       2.13939000      -0.64719771       0.14531023       0.12869446      -3.81856384      -4.93678915      -0.21453342       2.07503653
C        3.20954000       1.43293000       5.37400000      -0.42131446       0.41333489       0.24275568      -6.15156626      -0.32655917       0.25793401       1.89686648
C        0.48993000       1.96802000       0.44518000      -0.30433217      -0.04177929      -0.65711009      -6.57253759       0.36201855       0.06829635       0.43703150
C        3.49205000       4.96130000       3.65510000      -0.98763369      -0.67568809       0.14954434      -6.62407772      -1.42170124      -1.16609110      -2.90852167
C        3.67098000       1.51524000       3.04987000       1.21633181      -0.87707733       0.01330904      -5.24220329      -0.13631201      10.31560407      28.44665014
C        0.06885000       0.63622000       5.11107000      -0.08719601      -0.51731756      -0.11024929      -7.36514468      -2.47780587       1.99168438       0.69759040
C        0.85562000       4.01951000       2.80956000      -0.04883973      -0.16385216      -0.23790992      -6.51186838      -0.45020362       0.05029708      -1.27060383
C        1.62881000       4.24675000       5.49058000      -0.43851770      -0.27367325      -0.04446310      -6.98227994       2.39541405      -1.42139002      -2.46595801
C        1.89180000       4.90839000       3.95597000      -0.06049123      -0.71662669       0.47660282      -6.50765102      -0.05190382      -0.98307191      -0.57293411
27
Lattice="5.525534 0.0 0.0 0.0 5.525534 0.0 0.0 0.0 5.525534" Properties=species:S:1:pos:R:3:momenta:R:3:energies:R:1:forces:R:3 virial="-3.7407310762837427 -3.9468524469113166 -39.01351991975929 -3.9468524469113166 14.354223218366675 8.740173047719423 -39.01351991975929 8.740173047719423 -12.00222374162131" config_type=Amorphous_Bulk energy=-172.8455136540689 free_energy=-172.8455136540689 stress="-0.09211584981137959 0.05853628982108203 0.26408537822097433 0.05853628982108203 -0.09880057299866243 -0.05857242626712792 0.26408537822097433 -0.05857242626712792 0.01259061312435186" pbc="T T T"
C        1.50226624       1.74070980       1.74820650       0.84847799      -0.44315006      -0.87579918      -6.52183027      -2.01744938       3.26981920      -2.96457286
C        1.05000549       0.73340442       4.01893768       0.20413890       0.57276476      -0.31323627      -7.21112913       2.78071506       0.80550749      -2.80649811
C        4.10158955       0.63270398       4.43018726       0.90293367       0.37795561      -0.14955412      -6.58260427      -0.37034633      -0.97564846      -1.24918569
C        0.00952619       3.19340398       3.88324271       0.51174083       0.26466589      -0.44505658      -5.91892664       0.34957590       3.03240677      -2.62293542
C        2.01571560       1.89131667       4.50131866      -0.65831962       0.51983902       0.30026335      -6.23043367      -3.78940625      -0.07744695       2.35430501
C        3.87660902       4.76831849       1.84365161      -0.04778785       0.34063824       0.58141571      -6.66039891      -0.66924614       0.76080511      -0.08559994
C        2.00024785       3.13210746       2.19437716      -1.27197232      -1.12188687       1.35392400      -7.06319149       1.14722697       0.27132168       0.21630458
C        2.83317244       3.83472784       1.02458823       0.12015198      -0.77241638      -0.37457743      -6.86077618      -2.63573369      -0.22344147      -0.54734477
C        3.74310413       2.90912146       0.19767126      -0.21888294       0.66437836      -1.91181308      -6.40396150      -4.37360161       1.04706521      -3.63566723
C        0.48518972       4.98642360       0.42111333       0.24799942      -1.07289211      -0.06514463      -5.94037941       1.64649681      -2.32435722       0.47687005
C        5.38014972       4.20559854       1.58813753       0.34181936       0.52849721      -0.90331890      -7.41999684      -4.14796609       3.38566884      -0.58299452
C        3.75533589       0.68443748       1.26254745      -1.75172970      -1.29634193      -0.27123650      -5.66852176      -0.99906962      -0.00015407       0.34408850
C        4.82827533       2.84589139       1.07786687      -0.45165267       1.43048900      -0.10525657      -6.45276201       6.45011095      -2.52603217       1.25021484
C        4.03107652       3.55775407       4.16373953       0.74172712       0.91354520       0.20639039      -6.80789135      -0.09540776      -4.00126619       1.94565358
C        4.71944631       1.68479517       2.10106575      -1.36383542      -0.97200717       0.20752369      -6.34084656      -0.60383931      -2.22110343       3.43716996
C        1.00918636       2.86162084       4.95365123       0.50438420      -1.10480694      -0.04989655      -6.66316763       0.35889198       1.99431310       0.25537656
C        2.84792643       2.67300371       3.43194102      -0.37580073       1.32984880       0.51413605      -5.96570118      -0.15173646       2.38729245       2.13710306
C        0.53969045       1.23115386       2.65299411       1.11624621      -0.86063876       0.71047503      -5.59916038      -2.85382456      -0.17108446      -0.26717913
C        2.56796998       0.91410109       2.15777076      -0.41495603      -0.09544094       0.95022625      -4.27324836       3.07238143      -2.59856043       0.55783980
C        3.24145322       1.34463523       5.41892022       0.28316641       0.86062949       0.12813160      -6.10083706      -0.21751954       1.75949886       1.63566414
C        0.45884118       1.97793119       0.42096314       0.20101842       0.43936217      -0.60605062      -6.32340300      -1.06872537      -0.65633811       3.20079597
C        3.42939841       4.81831123       3.54674250       0.49098986      -0.67631014       1.35791436      -6.55044701       0.89044665       2.80403946       0.53921479
C        3.60431573       1.48014335       3.20999229       0.22180160      -0.71744121       0.24430669      -5.52372841       8.08752874      -3.66820535      -7.24691569
C        0.03878645       0.65679682       5.10668834       0.17605367      -0.14042991       0.00637874      -7.40431502      -2.33596867      -0.02220486       1.66946053
C        0.81523930       3.98733781       2.76194795       0.11998300       0.46632878       0.38856922      -6.85548736       0.34910559      -2.25564126       1.53115655
C        1.62112506       4.20987592       5.36841463       0.10321303       0.68741378      -0.19863918      -6.81312470       0.64868753      -0.15338489       0.73052494
C        1.80074743       4.87631459       3.87081228      -0.58090836      -0.12259391      -0.68007549      -6.68924354       0.54867317       0.35713115      -0.27284951
27
Lattice="5.525534 0.0 0.0 0.0 5.525534 0.0 0.0 0.0 5.525534" Properties=species:S:1:pos:R:3:momenta:R:3:energies:R:1:forces:R:3 virial="-3.7407310762837427 -3.9468524469113166 -39.01351991975929 -3.9468524469113166 14.354223218366675 8.740173047719423 -39.01351991975929 8.740173047719423 -12.00222374162131" config_type=Amorphous_Bulk energy=-173.07325135989657 free_energy=-173.07325135989657 stress="-0.04043983618422329 0.06486654260853798 0.2392957565849604 0.06486654260853798 -0.19089370407924583 -0.03386913815464235 0.2392957565849604 -0.03386913815464235 0.045703884962865884" pbc="T T T"
C        1.51153624       1.80335507       1.65901898       1.35068916       0.58082478       0.51842429      -6.73736681      -1.77482220      -1.52352165       1.52279639
C        1.08102989       0.78119896       3.97349963      -0.31962037       0.72951076       0.12953930      -7.33847602       1.89269122      -0.73313824      -0.36520260
C        3.97626935       0.60086639       4.29941146       0.86363866       0.14407957      -1.01551093      -6.39138509       4.00166851       0.04729657       2.39012683
C        0.03699712       3.32386108       3.90380006      -0.05666833      -0.78308472      -0.22494233      -6.12063203      -0.64376188      -1.49725564       3.55283679
C        2.04722245       1.88937112       4.46010877      -0.24152347       0.15861935       0.64537421      -6.36662976      -1.89184450       1.67049054       0.67664492
C        3.78005382       4.73963689       1.91069368      -0.04953502      -0.35899178       0.79985512      -6.57857681       6.13569600      -7.98636211      -2.33860423
C        1.91957234       3.14650704       2.22984711      -0.54646730      -0.98424994      -0.26856360      -6.86835501       2.96220070       0.31415245       0.73453296
C        2.79672267       3.78279252       1.06918322       0.95483592      -0.63176923      -0.50921603      -6.82192731      -2.07423868       1.65747010      -0.75998160
C        3.68438242       2.87252226       0.10252255      -1.10607572       0.26545640       0.65184114      -6.81926701       1.15349750       1.14676927       2.24396996
C        0.54282585       4.93463656       0.47191721       0.29043726      -0.82527287       0.48789312      -6.11846025      -2.98292891       1.80153201       1.12707701
C        5.31891208       4.25666257       1.60721200      -0.74751017      -0.24395317       0.07388743      -7.39620183      -2.64084158      -0.87907700      -0.26890213
C        3.75471238       0.58715722       1.16435000       0.34341085       0.22934259       0.41485692      -5.09084182       0.78744892       1.27325917      -1.48574599
C        4.85453135       2.77009386       1.05519804       1.55474764       1.11591633       0.23854026      -6.40923722      -0.91711971       1.36894059       2.14437112
C        4.07026529       3.53874152       4.22957516      -0.02688838       0.68914149      -0.67842068      -7.10588925      -0.93977098      -0.04987356      -0.95750244
C        4.76062009       1.57533774       2.13996219      -2.53724858       0.88013736       1.85189819      -6.15747142      -0.42918175      -0.39723133      -0.69545052
C        1.06248992       2.90288819       5.02932561      -0.35657315      -0.55094190       0.05738421      -6.79916107      -1.49283068      -0.76496955      -4.10106293
C        2.88574841       2.71094782       3.45642561       0.06595917      -0.01160861       0.22237204      -6.04023937       0.11185637      -0.61842407      -1.04663894
C        0.56303402       1.10897088       2.60562878       0.12040522       0.44781081       0.33966525      -5.80832212       0.15450170       1.59687483      -1.67416443
C        2.68734199       0.97435032       2.07373434       1.17252338       0.46663139      -0.52603222      -4.28959833      -6.96319219       7.34188023       1.94596374
C        3.20874943       1.42782048       5.38739008       0.68016757       0.15334134       1.36961274      -6.03713513       0.30562918      -2.47281881       0.46168591
C        0.43692651       2.00418220       0.46715221      -0.03548810      -0.32900339      -1.00386374      -6.41554626       2.46447595      -1.40723819      -0.40532050
C        3.44269409       4.84572546       3.60111032      -1.00089448      -0.29595153       1.15225001      -6.93792741      -1.24815412      -0.00281797      -0.24421467
C        3.65510744       1.46382555       3.14501851       0.42196829      -1.33748012      -1.00102863      -5.87220309      -0.51344442       2.03357374      -0.53376967
C        0.04915678       0.62996264       5.14477551      -0.33054900       1.15313271      -1.17675652      -6.99813445      -2.33155310       0.63296593      -0.14778388
C        0.70387499       3.99800907       2.80911876      -0.47491832      -0.37592294      -0.32341769      -6.70277362       4.63675863       1.30921619      -0.24981700
C        1.63489919       4.20925832       5.47408692      -0.55482628       0.17401118      -0.85367711      -6.63294660       3.42977770      -0.30876509      -1.25607652
C        1.84071389       4.95325827       3.88742327       0.56600355      -0.45972584      -1.37196475      -6.21854627      -1.19251766      -3.55292841      -0.26976757
27
Lattice="5.525534 0.0 0.0 0.0 5.525534 0.0 0.0 0.0 5.525534" Properties=species:S:1:pos:R:3:momenta:R:3:energies:R:1:forces:R:3 virial="-3.7407310762837427 -3.9468524469113166 -39.01351991975929 -3.9468524469113166 14.354223218366675 8.740173047719423 -39.01351991975929 8.740173047719423 -12.00222374162131" config_type=Amorphous_Bulk energy=-173.09328348559015 free_energy=-173.09328348559015 stress="-0.10746457314187627 0.056081383242671534 0.24229499185711978 0.056081383242671534 -0.09690497424891688 -0.07746093624253417 0.24229499185711978 -0.07746093624253417 0.0498641228042944" pbc="T T T"
C        1.42845648       1.86058060       1.72443221      -1.20452211       0.37369375      -0.59798851      -6.69922890      -1.38117643      -2.68635373      -0.11336785
C        1.13542946       0.71053807       3.95622862       0.29519892      -0.96413216       0.55664632      -7.24766668      -0.49991512       0.94228514       0.36641428
C        4.07642045       0.59987386       4.46004365       1.70922249      -0.06317959      -3.27489699      -6.54102399       0.72283817       0.87918136      -0.85510506
C        0.05726597       3.33268291       3.92785840      -0.52472871       0.05406267       1.56413311      -6.01977400       0.42610502       0.87508415      -4.10721972
C        1.98775391       1.92291076       4.44441750      -0.22462319      -0.54848733       0.07145682      -6.38974860       2.09522738      -0.93537407      -0.40012851
C        3.77912171       4.79278061       1.83759064       0.48584736      -1.50641767      -0.55352989      -6.70156353       2.06664871      -0.35288372      -0.86292917
C        2.00102493       3.14276609       2.21376967       0.05794205      -0.60476509      -0.35295622      -7.07939239       0.86597486       2.16594385      -1.13222099
C        2.80771075       3.84376392       1.01430050      -0.05685435      -0.55671273      -0.51991819      -6.96285563      -1.06602378      -1.52231390      -0.45853715
C        3.71736678       2.85551253       0.11944981      -0.42912956      -0.56657643       1.51999591      -6.70903475       0.35358040       1.92244790       0.96017942
C        0.55362523       4.88116535       0.45539269      -1.74163633      -0.33153484       1.15725638      -6.00821155      -2.58159319       4.03464933      -1.02254013
C        5.29472047       4.20289669       1.55136485       0.77471346       0.95824782      -0.76194454      -7.46997030      -0.51232076       1.05538486       0.43341967
C        3.63317525       0.67275119       1.23237300      -0.01996759       1.01790304       0.02602190      -5.52116048       0.73116947       0.61339949       1.31834810
C        4.91997962       2.76795680       1.08261514       1.63656580      -0.77570474       0.51130775      -6.57423890      -3.39720516      -0.69237055       0.63497484
C        4.05998725       3.48684450       4.13309092      -0.61577783       1.37814735       0.48070706      -6.91483387       0.43900969       1.33499713       3.52805576
C        4.65480294       1.56383111       2.19561321      -0.42891379       0.07615266       0.27572287      -6.09118802       2.40408509       0.83129952      -3.09145794
C        1.04103848       2.91646944       4.96173996       0.82534999       0.97896310      -0.63635043      -6.81462977      -0.35936919       0.77690161       0.34677313
C        2.87771724       2.74509600       3.42175241       0.60402478       0.29058725      -0.53754495      -5.94579817      -1.00986485      -1.74106532       0.68738997
C        0.47305812       1.06464672       2.65703453      -0.65574023      -0.10509294      -0.59737976      -5.49584632      -5.61484838       2.63940857      -0.84271354
C        2.50001035       0.91993410       2.17139576      -0.10361202      -0.11837819      -0.49861387      -4.11906107       8.05739732      -0.23139008      -0.39066405
C        3.16609303       1.41044482       5.45053491       0.11223813      -0.05033539       0.60723418      -6.18926213       1.13852577      -0.62481848      -1.49194914
C        0.50541816       2.03394203       0.45233081       0.91364913       0.96888115      -1.05484867      -6.49849482       0.29075350      -2.28129955       0.43523775
C        3.47274055       4.82701931       3.56680601      -1.02463076       0.47369002      -0.45116053      -6.72889253      -0.26427961       1.26531470      -0.10816765
C        3.65280377       1.51302584       3.23167157      -0.23166020      -0.60599031       1.04758884      -5.43788106      -1.96906719      -3.72265134      -0.25267408
C        0.11624616       0.60742211       5.13389482       0.94942465      -0.01345158      -1.00900106      -7.21751146      -2.53618589       0.34875648       1.71310167
C        0.82552284       4.03312313       2.70947608       0.56125048       0.11539730       0.63214360      -6.51902444      -0.69793606      -1.68510909       3.32467651
C        1.67223471       4.22967444       5.41584433      -1.54399785       1.04593480       1.55460335      -6.72868107       2.50788705      -2.63508396      -0.20125144
C        1.89666539       4.89428707       3.83646801      -0.11963272      -0.92090193       0.84131552      -6.46830905      -0.20941684      -0.57434030       1.58235535
27
Lattice="5.525534 0.0 0.0 0.0 5.525534 0.0 0.0 0.0 5.525534" Properties=species:S:1:pos:R:3:momenta:R:3:energies:R:1:forces:R:3 virial="-3.7407310762837427 -3.9468524469113166 -39.01351991975929 -3.9468524469113166 14.354223218366675 8.740173047719423 -39.01351991975929 8.740173047719423 -12.00222374162131" config_type=Amorphous_Bulk energy=-172.20604351022143 free_energy=-172.20604351022143 stress="-0.08122883644070246 0.09497076328313506 0.2209815068963475 0.09497076328313506 -0.1800657498667291 -0.07654159146085106 0.2209815068963475 -0.07654159146085106 0.0665481216114278" pbc="T T T"
C        1.50603478       1.84212332       1.69656493      -0.29630359      -1.16319446      -0.78012528      -6.72624081       1.03957027      -1.85938215      -2.22567003
C        1.04693479       0.71213848       3.94562635      -1.80869170      -0.23789232       0.99128650      -7.12648436       1.85463182       0.53503096      -0.61320925
C        4.02859980       0.61198294       4.53420429       2.63123941       1.03770337      -0.64814506      -6.33329367       1.46732031       0.72214561      -2.87788254
C       -0.05086139       3.26364990       3.82990458      -0.19784069       1.05171035      -0.71778354      -5.72390757       2.98909215      -0.62738698       3.28344718
C        2.00112877       1.89989130       4.40483406      -0.42795183      -0.90543228       0.10455855      -6.23979037       0.48789290       0.27766109       0.38902059
C        3.85136200       4.78891055       1.86096778      -0.11027593      -1.73409587      -1.23374231      -6.73445052       5.93300102      -9.43436686      -2.16562102
C        2.03259807       3.17042460       2.12641966      -0.18040059       0.83460624      -0.96720237      -7.03413999       0.36480449       1.83035931       1.83277093
C        2.80775983       3.89543513       0.98541517       0.60544979       0.19068454      -0.13799445      -7.04622471      -1.03607809      -1.66994666       0.97808807
C        3.68599321       2.86869650       0.26905918       0.85362741       0.37753213       0.31375006      -6.67393172       1.47727600       1.36111059      -2.14426097
C        0.45641348       4.88062929       0.45859676      -0.02146368      -0.10579126       0.93919887      -5.94482531       1.26031143       2.18506586      -1.34116722
C        5.23668031       4.15737426       1.59950742       0.44164567      -0.13276921      -1.64135054      -7.38060466       2.47594745       2.09505616       0.62134485
C        3.79846512       0.70447183       1.23018427      -1.28324987       2.15134289       1.47857089      -5.12173328       0.41371699      -1.56502525      -0.56203885
C        4.93650456       2.73484225       1.18843755       0.70663893       1.03189582       0.66901808      -6.59826720      -3.65438403      -0.01959049      -4.20891335
C        3.99967363       3.48984354       4.23743900       0.35442369      -0.85331825      -0.28789992      -6.73813934       0.94790830       1.67089348      -1.59806128
C        4.76414566       1.58377810       2.14296799       1.09527058      -0.76906728       0.52348768      -6.31574565      -1.74622557       0.09905923       2.18195015
C        1.02933858       2.90487969       4.94717679       0.48705066      -0.15545585      -0.00190093      -6.60588483      -0.27384744       1.56092512      -3.15448373
C        2.91107926       2.73809179       3.38360188       1.26542393       0.18426471      -0.56550557      -5.97609260      -1.13231405      -2.77060353       0.50737936
C        0.54413247       1.22973093       2.57421357       0.19422201       0.86387394      -0.24736339      -5.72035790       0.92202826      -1.98515978       1.56974838
C        2.61778783       0.90221155       2.10448905      -0.85577725       0.21463456       0.47854289      -4.17261789      -9.34485002      10.22760118       3.16650541
C        3.10609793       1.41995358       5.45235921      -0.56368700       0.12512006       1.62328885      -5.87855079       1.14642804       0.20041933       0.89096694
C        0.47683872       1.98773163       0.37645576      -1.29937373      -0.83203062      -0.31893506      -6.52477452       0.79216177       0.12996154       3.90030778
C        3.37067182       4.85209499       3.54519727      -0.26073343      -0.14131441      -0.28287589      -6.47635770       2.70610017      -0.33451149       2.26929884
C        3.66201532       1.42753843       3.20102738      -0.32278357      -0.46483374       1.84763369      -5.65137013       0.12745350       0.19571478      -0.37667985
C        0.05107318       0.68000817       5.17423827      -0.50238380      -0.59644329      -0.09028872      -7.44874566      -2.78048479      -2.78530496      -0.44564882
C        0.84956826       4.01053691       2.76473560      -0.72969763      -0.05260983       0.18790865      -6.30953729      -1.92918562      -0.45413849       0.42252994
C        1.70888722       4.25671289       5.40652285      -0.14112580      -0.41853500      -1.40893635      -7.03059828      -2.53769823      -2.45276208       1.32577304
C        1.87746678       4.81825741       3.91734336       0.36674800       0.49941510       0.17280466      -6.67337676      -1.97057701       2.86717447      -1.62549456
27
Lattice="5.525534 0.0 0.0 0.0 5.525534 0.0 0.0 0.0 5.525534" Properties=species:S:1:pos:R:3:momenta:R:3:energies:R:1:forces:R:3 virial="-3.7407310762837427 -3.9468524469113166 -39.01351991975929 -3.9468524469113166 14.354223218366675 8.740173047719423 -39.01351991975929 8.740173047719423 -12.00222374162131" config_type=Amorphous_Bulk energy=-172.48470532019797 free_energy=-172.48470532019797 stress="-0.09729829451830684 0.021354920301335935 0.2413248051818034 0.021354920301335935 -0.11211588369279438 -0.045322251851136114 0.2413248051818034 -0.045322251851136114 -0.005713484077315273" pbc="T T T"
C        1.40145449       1.91472121       1.70218868       1.72417719      -0.70286476       0.37293303      -6.65813616       1.15025017      -3.87536270      -1.20244054
C        1.08646541       0.74263500       4.04042315      -0.08490465       0.49533152      -1.11447309      -7.26902924       0.24284533      -0.42106105      -3.29895978
C        4.09764870       0.58899960       4.31783460       0.11579781      -0.83229061      -0.66990543      -6.26562980      -0.34646142       1.32583929       1.37852242
C       -0.00713857       3.30616473       3.99434930       0.58955223       0.80176298       1.24462286      -5.86920563       5.31043702       0.34606278      -4.31339032
C        2.00147164       1.87448693       4.40472866       2.30518740       0.56097521      -1.26604400      -6.37716307       1.84280525       0.72704375       2.67078853
C        3.80603280       4.77983571       1.79160894       0.91935746      -0.68002754       1.46224132      -6.57882320       0.43988637      -0.01012261       1.07444805
C        2.03629612       3.16602142       2.22089992      -2.09123154       1.34763257       0.97240248      -7.05504657      -1.58601723       2.14842842       0.18672099
C        2.82318215       3.84003860       1.02345409      -0.19405064      -0.88279931      -0.84403357      -7.21732201      -0.60196476      -1.95738906       0.97705446
C        3.72736892       2.88057130       0.21980125       1.14512797       0.47530205      -0.23652211      -6.79027971      -0.26996042       1.56592434      -1.73662562
C        0.54730977       4.96391366       0.56337358       0.36878029       0.44867786       0.59363425      -6.11943539       0.12511158       0.15482938      -2.60374277
C        5.27014040       4.27956395       1.62546299      -0.77926417      -0.94645000       0.41961177      -7.35164102       1.09365757      -1.94018737      -0.24990469
C        3.64580413       0.60692724       1.11552038       0.02620441       0.29633231      -1.67789927      -5.27198178       0.90545581       0.16450680      -3.17790412
C        4.88307441       2.76911665       1.11829395      -0.50491287       1.73513864      -0.51304965      -6.45032756       0.32982031      -0.11008724      -0.07550898
C        4.10174454       3.47752171       4.26276424      -0.21504879       0.03890018      -0.20488988      -6.98936874      -3.20420887       0.94515390       0.34117627
C        4.71113212       1.51990094       2.11386609      -0.86690323      -2.76352759       1.11494277      -6.04829937      -0.78184829       2.03801114      -1.89751953
C        1.10345084       2.88950873       4.95781925       0.94440177      -0.00239853      -0.40895304      -6.67179233      -2.93153943       2.06496607      -0.00813385
C        2.87025186       2.65928330       3.42110773      -0.47737950       1.22076981      -0.55059017      -6.16435731       2.58487987      -0.49419704      -0.97817799