125
Lattice="10.757142 0.0 0.0 0.0 10.757142 0.0 0.0 0.0 10.757142" Properties=species:S:1:pos:R:3:momenta:R:3:energies:R:1:forces:R:3 virial="7.072539035806672 -6.680237425965296 -23.038633414820715 -6.680237425965296 -12.281921234015403 7.98550616402904 -23.038633414820715 7.98550616402904 -19.273372380133903" config_type=Amorphous_Bulk energy=-607.2747125725849 free_energy=-607.2747125725849 stress="-0.3736995106431452 0.08142058850987846 0.049593735526680734 0.08142058850987846 -0.42936421408784337 0.06298791122677455 0.049593735526680734 0.06298791122677455 -0.2956143195688666" pbc="T T T"
C        4.52530000       7.14462000       5.27313000      -0.28915631       0.30378134      -0.33611526      -5.57769837      -4.39320980       0.66656586       2.55623315
C        6.85003000       4.16365000       9.55826000      -0.14088965      -0.89979943      -0.81311747      -4.15586958      -5.30560881       5.84418587       2.71358043
C        6.91630000       7.81157000       5.95199000      -0.52827173       0.46585456       0.18634438      -6.39642995      -1.29625379      -5.32663230       7.92421655
C        8.48621000       9.27313000       3.64100000      -0.44263928       0.31384655      -0.19403463      -3.50757315      -4.15841156       5.93166865      -0.28414380
C        0.05874000       4.01709000       3.15933000      -0.46546442       0.70147858      -0.24675288      -6.60431544       0.32960106      -6.20372640       0.60260907
C        8.42617000       8.30194000       8.48660000      -0.22425216      -0.11922286       0.73883609       0.13449656     -10.63446595      -8.30792518     -34.13059876
C        4.80506000       1.26310000       4.75911000       0.88667611       0.94342797       0.17024882      -4.69452160      -0.78475770       4.38439027      -3.90458318
C        8.77431000       6.29708000       7.38513000       0.54405803      -1.46819012       0.03670642      -5.31739813      10.33825120       4.09052084      -5.62427240
C        5.61426000       7.11325000       6.66571000       0.87826915      -0.25225487       0.99538928      -5.19074004       3.62877490       3.75729641      -4.80735186
C        6.49590000       2.75885000       9.80771000      -0.36449984       0.29224889       0.26957225      -4.34106167       6.84075230      -0.88081801      -5.97199395
C        8.18349000       2.14366000       0.79503000       0.22866793       0.28529410       0.17972980      -3.79549795      -3.53759043      -0.41946591      -5.42830014
C        2.43838000      10.17862000       8.78472000       0.07283534       1.08501348      -0.55932337      -6.55088550       7.75555678      -0.35472135      -6.60006819
C        0.55245000       7.42585000       7.62008000      -0.62336456      -0.64655205      -0.62752909      -4.31173211      11.54632352      15.81240400     -10.43973689
C        7.76583000       1.59131000       8.57904000       0.40588451       0.80607820       0.20417402      -3.13971844      -5.78973953      27.56564095      -7.88256012
C        6.98180000       2.08017000       3.24457000       0.52802099       0.66600597       0.22649071      -5.46336499      -4.14183185      10.68381735       3.47885216
C        4.69523000       6.00228000       8.57037000      -0.82593936      -0.67381531       0.40919129      -4.73418546      15.96683556       1.74905590      -8.62566984
C        8.13508000       1.20923000       2.99259000       1.08254754       0.94937874      -0.16254945      -4.90225499      10.27436056      -8.57133834       0.56155835
C        8.83455000       2.57634000       8.13133000       0.30559914       0.23694804       0.10156238      -5.52328130       3.24787700     -11.18728233      -5.80156958
C        4.93340000       8.81733000       8.61704000      -0.61719653       0.09789959       0.15518010      -4.12435263       6.47233779       1.00061987      -3.46795002
C       10.58539000       0.46704000       2.42847000      -1.02000961       0.36707831       0.13076406      -5.89325702      -2.03977191      -4.04732064       3.01732538
C        0.10830000       6.43688000       2.58366000      -0.41718018      -0.90951562      -0.01040480      -6.33109127      -0.40423481      -2.13419370       2.28693490
C        7.22672000       6.51786000       0.37291000       0.98888577       0.10235741      -0.42865848      -4.45069163       2.42263674      -6.21384137      -0.79922383
C        5.24582000       0.58618000       1.95331000      -0.18753976      -0.87409204      -0.42869418      -5.56160467      -1.11809768     -10.70517544       3.27099625
C        0.97603000       3.83756000       2.08696000      -1.59854623       0.83416422      -0.46402305      -3.92489007      -1.10332121      -1.63645163       2.46032292
C        8.01190000       7.49839000       7.16755000       0.81878452      -0.21224351       0.43253911      -5.41222612      -3.50962794       0.10284950       2.43597774
C        6.14221000       4.60968000       1.51891000       0.06671764       0.50667138      -0.81198697      -3.52521329      -6.98156138      -7.61963496      -2.44672051
C        0.50965000       0.59144000       6.14699000      -0.26786112       0.43848897       0.62721668      -5.28252367      -1.78323749      -0.74160878       3.85255832
C        4.16354000       5.83543000       9.95889000       0.46326157       0.95259563       0.75361186      -5.40290297      -0.36783494      -0.63040302       3.16129008
C        6.25283000       1.35125000       4.27701000      -1.32167393      -0.53778062       0.33183728      -4.98384566       9.89112852       3.73163650      13.32716655
C        5.12058000      10.12016000      10.36351000       0.68818184       0.73567769      -0.84053273      -3.61752964      -7.53304512       1.00915264      -5.92086940
C        7.45229000      10.23977000       9.87156000      -0.44516400       0.13040582      -0.34524169      -3.84197839      -2.06527085       8.37254539       4.77073031
C        8.43421000       6.93679000       4.38837000       1.09764741       0.03674974       0.24949483      -6.00031970      -7.21726335     -15.91752126      -2.51356298
C        7.02569000       5.32552000       8.33029000      -0.27556469      -0.13103488      -0.45920604      -5.66887459       0.44920269      -4.19142482       1.72599208
C        5.40702000       9.73099000       2.21599000      -0.58480542       0.45501339       0.53084975      -4.27677124       8.63807286      11.75352187      -9.68223518
C        4.06432000       6.04744000       1.74983000       0.86996013       1.12014042       0.15311214      -5.60893309       6.50726215       3.99959450       9.18096242
C        9.27608000       2.76213000       1.18283000       0.47374688      -1.03680904      -0.43738244      -4.93364208       6.93484582       1.09161845       5.19602967
C        2.74255000       5.87004000       9.24441000      -0.99468134       0.23968526      -0.47151145      -4.79977587     -15.31394318      -4.76902399      10.38959664
C        3.43684000       2.25231000       0.19964000       0.36697664      -1.32293259      -0.60980705      -4.90887123     -10.83939910       4.35456598       7.38253690
C        3.19831000       6.34359000       7.97765000      -0.44624975      -0.60994830       0.17975728      -5.76334362       7.80609322       8.19345771       1.06765358
C        1.05948000       8.66094000       6.28407000       0.12488607       0.04818664      -0.93533367      -4.27710010       3.63558491     -21.44619628      12.73059922
C        7.43549000       1.40868000       1.62353000       1.00070238      -0.72375382       0.52514062      -5.35304640      -7.46644312      -3.00324289      -3.63667630
C        6.49228000       7.55177000       0.58555000       0.58368128      -0.97685515       0.25933389      -3.82625759       3.37210972      12.27106745       3.96729297
C        2.69687000       5.88661000       6.80162000      -0.49675893       0.15072049       0.01202621      -5.84514335       9.68148932      15.54738403      -3.60412472
C        3.76980000       0.22292000       8.27488000       0.06231576      -0.63468074      -0.58108005      -6.27179949      -5.03386935      -2.56992332       7.28993482
C        2.93615000       2.22749000       7.25716000       0.69965404       0.09550426      -0.75377723      -5.28100743       0.26986432      -6.93580476       2.09198595
C        3.03204000       6.80139000       5.48926000       0.17071403       0.92276375      -0.68925956      -6.34499239      -3.10156460      -3.38249658       5.67529322
C       10.39149000       2.32181000       8.11925000      -0.16369472       0.18057762      -0.76907036      -4.80866468     -22.37083897       0.43938791     -19.51464104
C        0.02654000       6.77995000       0.32324000       0.46607213      -0.20868082       0.06302682      -4.44893253     -11.14893874      11.34120806       6.54342427
C        2.51658000       0.35278000       1.37089000      -0.37958330      -0.56419096       0.86458956      -4.56924569      -0.98519638      -6.89955364       3.67991533
C        1.75255000       7.65739000       5.27166000      -0.14949979       0.02401953      -0.64944887      -5.86825692      -0.53455283       4.58224801      -1.95201766
C        6.86796000       9.18060000       6.33260000      -0.68258567      -0.31203093       0.71869902      -2.06313684      27.02755030     -30.79189094       5.24861078
C        1.94539000       8.67273000       1.78275000      -0.40471018      -0.20317820       0.38910767      -4.09349205       0.39771370       3.21923727      -6.03474191
C        2.75447000       3.62038000       0.54253000       0.10053421       0.24655697       0.27486127      -2.57464751       7.19135680      -4.97554434     -11.85717845
C        6.79751000       5.22262000       0.57194000       0.82573545       0.17293164      -0.34779341      -4.34909665       7.22924410      -1.44052269     -11.07864232
C        2.74094000       3.52814000       6.86181000      -0.29514454       0.90761734       0.05788533      -2.26757290      18.62596620      -2.89537250      -8.38810986
C        1.72843000       2.03155000       7.90208000       0.26057449      -0.28187213       0.68204260      -4.72901626     -11.85931707     -11.88730730       6.20086728
C       10.46463000       0.94293000       5.13870000      -0.02851965      -0.51089766       0.09061399      -5.77931374      -2.58136501       3.98559891     -10.16345656
C        9.01570000       5.40303000       4.03201000      -0.65924847       0.09269284       0.07626566      -5.81894037      -2.56017594      30.75382227      -3.83980241
C        4.34043000       8.20507000       3.88045000      -0.10282537       0.74802533       0.65950801      -2.78537769      -4.23910832      -4.72539518       8.90584848
C        0.78748000       9.89922000       5.96775000      -0.32211544      -0.50750725       0.73190800      -4.96181378      -2.25281851       8.00252341      -3.66259551
C        2.49078000       8.84420000       8.33392000      -0.41178623       1.09592879       0.19170889      -6.46892272      -0.88834628      -7.29591333       3.85958896
C        9.89399000       2.35186000       5.05636000      -0.93541545      -0.48587290      -0.15043961      -2.85585336       4.34475636      -8.91585486      13.03400063
C       10.06060000       2.82806000       3.71517000      -0.28032676       0.84802078      -0.02889234      -4.47839570       7.93538405      -1.31565967     -18.22753068
C        6.38205000      10.43792000      10.66372000       0.70311596       0.01533802       1.69797930      -4.46363153      22.22990044      15.91346260      -3.68928490
C        5.60503000       9.29100000       7.34782000      -0.58998335      -0.58419950      -0.31809772      -2.76996341      -1.67849578     -17.36837308      22.99968056
C        9.10315000       7.95554000       4.01162000      -0.37072648      -0.08182009      -0.34139847      -3.36024222       8.17257694       5.67918168       4.14579998
C       10.08856000       9.63584000       1.79485000      -0.12194458      -0.38082827      -0.10595374      -5.92841081      -0.10172769       3.64115513      -2.72090231
C        4.59868000       0.54997000       9.64324000      -0.43055783       0.72002976      -0.57415817      -6.31600505      -7.68290366      -3.00725745      -5.43421267
C       10.22830000       7.40470000       1.73713000      -0.39269971       0.18368334      -0.17300962      -4.77799808      -2.13891828     -11.33001887      19.24759149
C        1.61366000       6.45251000       9.75022000      -0.09679868      -1.37317788       0.16885229      -5.88328757       1.61673824       1.82630737      -3.03818241
C        1.17914000       2.99599000       0.82303000       0.66463476       0.54944521       0.72782782      -5.15281149     -11.58306072     -16.88330068     -11.11584952
C       10.16675000       6.90057000       7.34360000       1.24983223       0.06016429       0.21110472      -3.17283759     -10.89731682      -8.90201237      -1.35861090
C        7.86575000      10.61714000       3.80546000      -0.90983515       0.53107607      -0.01260172      -6.26229561       0.12050867       2.29826553      -0.88561695
C        5.50198000       6.66421000       4.16539000       0.51279210       0.82705187      -0.26750192      -5.61280256       7.74690870      -1.20363405       3.09537179
C        1.64217000       9.98563000       1.07600000       0.82305288      -0.54538072       1.45259222      -6.79555707       2.06294940      -0.85689597      -0.03691504
C        5.81731000       2.01640000      10.74929000       0.88174416      -0.06972852       0.53706910      -5.72077458      -9.14991670       3.12651981       3.27016953
C        3.83717000       8.09742000       8.30379000       0.35469699       0.29580297       0.27519682      -4.88685257     -12.72623102      -6.60138696      -1.38530382
C        9.98890000       8.12731000      10.58156000       0.48158225      -0.55648000      -0.53794789      -5.62965295      -1.08396380      -5.57317635     -16.63223508
C        7.02700000       3.68650000       3.46323000      -0.62520417      -0.21248988      -0.81173708      -6.55980640      -4.82809099       1.91238340       0.40921042
C        1.43624000       6.72273000       2.54908000       0.47398464      -0.18009629      -0.03327748      -6.40552739      12.19588420       1.74010307       3.22554472
C        2.38782000       4.69387000       6.70787000      -0.09185952       0.48125738      -0.02359215      -2.29786070     -17.85112102       3.01745229      -6.73632058
C        5.86365000       4.56864000       2.83267000      -0.26666383      -0.36533849      -0.62474347      -5.56295010       7.90870897      -4.21517423       5.38241372
C        9.67872000       1.65887000       2.63474000       0.15221052      -0.48467907      -0.08469406      -6.71226686      -2.82259626       6.74584032      -3.83990872
C        7.83679000       0.48278000       8.98445000      -0.08081400      -0.00110925       0.53211337      -1.96896016       4.30172900       8.16878915      -0.78015176
C        9.75751000       3.80352000       0.15303000      -0.48182289      -1.18298316       0.12312222      -6.26890950       3.71680485      -3.56031378       5.29144596
C       10.29469000       5.22767000       3.34615000       0.13819110      -0.04052118       0.17563676      -6.89060407      -2.58484179       9.23949952      -1.53067665
C        3.64845000       0.91689000       7.03568000       0.23419380       0.11655057      -0.38538692      -6.42727841       0.77677388       7.69042101       0.31720544
C        4.52545000       6.61699000       0.38440000      -0.29555060      -0.20671300      -0.20225696      -6.91343655      -3.44070661      -0.18841987       2.97477632
C        0.32744000       1.56372000       7.18210000       0.17029788       0.31648423       0.04002208      -4.72096847       9.50259746       0.04226301      -0.36178715
C        4.70609000       0.76896000       6.09168000       0.51526355      -1.22347010       0.19207444      -5.92340201      -2.88795111      -2.18897569       3.89141547
C        2.02116000       8.13000000       3.09025000      -0.42891468       0.67721945      -0.21230126      -4.28411229       4.95412899     -10.00215547     -20.24673785
C       10.34025000       9.26090000       0.39858000       0.15640277      -0.15002149      -0.70255693      -6.17116118       5.73072869      12.06366450      -3.58471737
C        7.97611000       4.36671000       4.39652000       0.11978640       0.51175505       0.08541746      -4.41705331      -4.65217077      -0.70117054      -2.40217148
C        5.91924000       6.46794000       7.96993000      -1.12700055      -0.31741585       0.32138943      -6.28909747      -0.42887430      -4.32916791       1.74149572
C        0.27580000       3.36479000      10.36999000       0.28801620       0.43942408       0.75735464      -6.25542295      -0.17066238      -5.53811795       3.34479359
C        1.41028000       8.50396000       4.03168000       0.01961521      -0.57326596      -0.58379233      -4.59607487      -7.60555858       3.63991608      22.00980037
C        2.47061000       5.84566000       1.94025000      -0.29649649       0.04409901      -0.25995691      -6.49360784       4.07175080      -3.88994712      -1.67518175
C        6.56101000      10.27790000       5.78304000      -0.02162077       0.47554605       0.61760347      -2.28517296       1.09554334      23.14852054     -13.11312381
C        8.53914000       5.05687000       7.94256000      -0.64110229      -0.95618151       0.10147766      -5.24137732     -11.80490736       0.91994674      -2.93541523
C        0.86954000       9.92147000      10.47721000       0.07807244      -0.19429324       0.38652879      -6.01455994      -2.36729088       2.32410614       7.71008384
C        0.07185000       2.15568000       9.46676000       0.95214835       0.71945643       0.31576236      -5.19540583      -1.49838545       3.92424837       4.33317419
C        6.68565000       0.10024000       4.59668000       0.05274895       0.42831738       0.43076384      -5.91352839       8.99599872      -4.96365160      -6.72426438
C        6.12532000       0.90298000       0.89522000      -0.92196212      -0.68785141      -0.81081390      -7.14081456      11.22115105       3.11006061      -0.25883240
C        2.31625000       1.60718000       0.96611000       0.23228696      -0.20615164      -0.63358405      -4.80790716      -0.69995224       5.99474383      -4.77588541
C        0.67756000       9.71109000       4.47926000       0.32708406       0.08630272       0.10118959      -5.85537802       1.16664253       0.97692671      -1.29574132
C        5.02976000       9.40388000       0.91785000       0.17883587       0.28053937      -0.27463106      -4.72697154     -19.78815235     -19.88922297       6.33407312
C        5.19984000       7.98598000       0.31057000      -0.21263400      -0.47636173      -0.31108926      -5.71123745      -1.96810746      -3.93458651       0.16356607
C        6.84318000       7.01935000       4.73784000      -0.82476883      -0.49165718      -0.38499440      -5.70747919       6.99419619       1.76698574      -2.10259253
C        9.15497000       7.99650000       9.45538000      -0.38440998       0.14834694       0.15018477      -1.56133624      15.83737424     -10.89325208      17.79793026
C        2.24452000       4.42678000       1.52336000      -0.00444054      -0.36682668       0.08926459      -3.45091545       7.15258643      23.80207432      18.31573529
C        8.87238000       4.22873000      10.00771000       0.89829326       0.07470828       0.80679326      -4.25327551       1.81600916       0.33665180      -5.48366200
C        8.11376000       9.27677000       9.24743000       0.21861382      -0.25994406      -0.44175059      -0.50471882      -1.39003763     -17.76519892      10.08601789
C        1.12486000       1.33060000       9.11776000      -0.74717334      -0.24988077      -1.00205636      -5.31528562      33.33824853     -15.65541659      19.07461304
C        0.58547000       5.63051000      10.59471000      -0.71354601       1.09332111       0.43762908      -3.51795854       4.08391653      -1.24652386      -4.63559437
C        0.17737000       0.19542000       3.87266000       0.79687922      -0.41521974      -0.58610709      -6.00427978       0.16345254      -0.13248794       0.26890136
C        9.01714000       3.45143000       4.49269000       1.29555602       0.50486515       0.41496846      -1.68111408      -5.11590169     -22.25034806      11.71792474
C        4.44549000       1.82085000      10.30612000       0.12888077      -0.15383207       0.17737157      -5.83510608      12.69023924      -2.54194106      -5.48685717
C        1.37305000       7.76235000       8.68644000      -0.81859958      -0.18945329       0.52717884      -5.93439690      -0.65271072      -1.35762145       6.32063288
C        5.33182000       5.79623000       3.13828000       0.43814655      -0.16301690       0.19086211      -5.18278586     -16.40289829       2.12280286     -13.33503498
C        9.04284000       3.84032000       8.47849000       0.07080355       0.52813896      -0.55623991      -5.12587786     -15.88970023      28.98783352      14.73880131
C        4.63795000       1.17595000       3.09238000       0.30420829       0.44662001      -0.76019490      -3.46069669     -18.26164463       3.00740779      -8.51932199
C        4.67360000       9.07564000       2.96273000       0.91644848       0.52519575       0.12590401      -2.35569014      -9.67322914       0.89605685       5.78937348
C        1.34150000      10.75175000       9.36366000      -0.15034024      -0.33118599       0.88777445      -6.78253477      -0.84464686      -3.99684294       0.96574982
C        5.33717000      10.30988000       6.57743000      -0.17766079      -1.10789236       0.09756326      -2.39255137     -24.84338188      28.61902775      -7.43060659
C        9.42045000       8.57270000       2.53289000      -0.27171564       0.20260938      -0.64750636      -4.92003617       2.43208836      -1.61442383      -5.71115053
