27
Lattice="6.403228 0.0 0.0 0.0 6.403228 0.0 0.0 0.0 6.403228" Properties=species:S:1:pos:R:3:momenta:R:3:energies:R:1:forces:R:3 virial="26.379653532115288 -2.8806012487978325 9.10033438939633 -2.8806012487978325 29.382052443831384 -5.3396463792146145 9.10033438939633 -5.3396463792146145 19.280274427293133" config_type=Amorphous_Bulk energy=-103.30155519016672 free_energy=-103.30155519016672 stress="-0.47042869462930836 -0.0900320187745279 0.046387667193053525 -0.0900320187745279 -0.501852091793242 0.1945173607378146 0.046387667193053525 0.1945173607378146 -0.48866072536245575" pbc="T T T"
C        6.36673000       0.38334000       4.97441000       0.31227984       0.30245260       0.63876735      -2.62489577      -7.45746255     -12.27596581       6.44132986
C        0.57614000       0.46532000       1.60801000      -0.14474645      -0.38328044      -0.26978590      -0.74649556      -5.71029199     -10.26847158      -6.51966443
C        4.75409000       3.84822000       1.93411000      -1.15781829      -0.12175570      -0.10491691      -5.00143427      -1.75736150       2.80974972      -0.79236871
C        5.96414000       1.12766000       1.28387000       0.34254123      -0.53265528       0.52083214      -3.70679310     -15.61097060       1.82248836      -5.96622722
C        3.72692000       1.87361000       1.41252000       0.55823473      -0.08432006      -0.20412739      -4.95586136      -0.98475970       2.81431809       2.58124373
C        2.87941000       0.29846000       4.14221000      -0.45187768       0.72397938      -0.60312884      -4.42161987       4.46580785      -0.23175505       5.37665095
C        4.59222000       6.38383000       2.50338000       0.23044816       0.02552342       0.32505233      -4.54502350     -10.09887306       5.02627825      -4.78684684
C        1.67263000       0.41975000       2.26556000      -0.12485050       0.11797877       0.58191499      -1.36231664      15.86611228       1.37637883      11.47584336
C        3.48240000       3.29348000       1.70380000      -0.15698881      -0.19460527       0.62664695      -5.33529683      -7.20241327     -27.59811014       1.92853477
C        5.26536000       3.06203000       3.89985000      -0.50208845      -0.39337862      -0.21398263      -5.17063561      12.21750386      -5.56749879       9.08405960
C        5.19366000       6.04205000       0.53600000      -0.37255041       0.27735744      -0.49021483      -2.03075528       9.06376546      17.99328509       0.39680216
C        4.91066000       1.50567000       2.31530000       0.58087907      -0.35891807      -0.55229766      -5.97239025      -3.10467485      -5.24999281       1.39141536
C        4.50728000       4.95369000       1.02695000       0.31008890       0.14466683      -0.48982666      -2.67918359       3.05284836       7.04310805      -2.93771743
C        0.37564000       2.59844000       3.68645000      -0.40477960      -0.28127306      -0.22336894      -4.70286418     -18.15279765      -0.48567515      10.23967501
C        2.21134000       3.51102000       2.09637000      -0.58210068      -0.71244022      -0.10695600      -3.87970613      -3.52111323      11.42694092      -4.02954593
C        2.24151000       0.89054000       0.95924000       0.74974506       0.97517336      -0.26797489      -2.43800545       2.30277896      -1.98089136       3.79431394
C        5.00091000       5.19025000       5.73594000       0.31815882      -0.49662563      -0.26196429      -3.02339930      -2.69465441      -7.19236113      -2.39629357
C        3.53894000       1.37732000       5.01113000       1.45230056      -1.17601037       0.27673641      -5.28064607       1.49064252      -6.44217358      -7.34852942
C        5.57320000       5.64110000       4.56637000       1.45660186      -0.03049152      -0.34225090      -5.90961571       0.51188712       4.26347546       1.52391985
C        4.81035000       5.40350000       3.39802000      -0.41180338      -0.22033329       1.19054033      -5.08944150       9.33787260       3.62623866      14.93071396
C        1.31881000       2.97191000       2.97168000       0.63292032       0.38181169       0.10048113      -2.98313535      10.15855124       2.66976320      -5.73228417
C        4.48351000       1.85249000       4.01644000      -0.15646692       0.85947979       0.55176544      -4.81472507       3.40186487       2.71235486      -3.79523305
C        4.84849000       4.07512000       3.29872000      -0.82856620       0.00848701      -0.10986321      -4.80315811      -6.86885168       2.89557628     -16.40227515
C        1.62164000       0.47919000       4.51994000       0.04049625       0.25766299      -0.15787652      -2.59842055      -5.48057498      -2.80363909       4.92287957
C        0.45834000       1.44630000       4.34254000      -0.70925661       1.02738846       0.21263945      -1.94188626       6.65887164       7.47951090      -4.83292028
C        2.79015000       1.43520000       6.20754000      -0.11401683      -0.12784804      -0.47368613      -2.57841871       1.94103278       7.79012786      -7.31855157
C        2.88397000       6.30924000       2.82562000      -0.86678400       0.01197382      -0.15315483      -4.70543116       8.17525995      -1.65306005      -1.22892433
27
Lattice="6.403228 0.0 0.0 0.0 6.403228 0.0 0.0 0.0 6.403228" Properties=species:S:1:pos:R:3:momenta:R:3:energies:R:1:forces:R:3 virial="26.379653532115288 -2.8806012487978325 9.10033438939633 -2.8806012487978325 29.382052443831384 -5.3396463792146145 9.10033438939633 -5.3396463792146145 19.280274427293133" config_type=Amorphous_Bulk energy=-141.99524933507323 free_energy=-141.99524933507323 stress="0.0015478296562860536 -0.0038500861494577187 0.04310693123543216 -0.0038500861494577187 0.04806502151355817 -0.10241008190393183 0.04310693123543216 -0.10241008190393183 -0.07324592135490278" pbc="T T T"
C        7.14219263      -0.17604700       5.47440554       5.54115034      -0.60160124      -2.39873707      -5.25405450     -15.87450885       7.16012703       0.10525980
C        0.58348208       0.13325226       1.90401425      -1.14817519       1.78191184      -1.75898652      -4.19068460      -1.04511774      -2.42977819       0.89563710
C        4.19523583       4.20768384       1.57760340       2.28619257      -4.22945169      -3.58849012      -6.36267781       3.23287815      10.81193651      -8.21500740
C        6.03934884       1.31129907       1.77440732       2.05045168       1.18388140       1.71736937      -4.58617946       0.65373911       1.99453982      -2.35007696
C        3.52117307       2.09815039       1.54884899      -2.63681355      -1.53853062      -0.08344494      -5.64797632      -2.17371005      -2.74940860      10.59748422
C        2.48609467      -0.35964438       4.48658857       0.63683202       0.75215432      -3.25370328      -3.74376477      18.74196302       8.07428719      -8.62562613
C        4.17966014       6.39795361       2.63678835      -3.89403021      -0.39343383      -1.65589359      -5.80255114       9.84326353      -3.22225963       3.63027610
C        2.01666469      -0.44098029       1.33379317       0.19547448      -1.93815142       3.49258156      -6.21566674      -1.65434765       6.69890291       2.27125575
C        2.96035222       3.55032943       1.62577523       1.01516628      -2.13448932       5.33360872      -6.17771184      -1.46612337      -5.19333385       2.91060404
C        5.53846164       3.07052923       3.47451886       1.24448212      -1.12769439       1.36028295      -5.79631261       5.73479460       0.71821080       5.89851065
C        4.00645438       6.55588505      -0.06026908      -1.86517320      -1.90502396      -0.05048069      -3.81973606      -4.32919393       1.08378185       5.24097069
C        4.58589353       1.41230795       2.27720346       4.23079144       1.56115627      -0.38076727      -7.68732919      -0.54572730      -2.58632189       2.96569888
C        4.40504232       5.16333713       0.22274366      -4.58546144       3.64389325       0.97462327      -6.55029169      -0.51564073       2.76012287       1.90035581
C        0.66687970       2.97464430       4.48003000       0.06109414      -0.25192547       0.93380145      -4.80714874      -7.06264466      -1.38721981      -6.79702406
C        1.46341549       4.08635612       2.07400498      -2.41917706       3.28331560       2.65016888      -4.43320740       7.49544447      -5.60576748      -7.02261709
C        2.71938206       1.00220684       0.76282296       1.46034863      -2.91556566      -1.80633305      -5.90174954       4.00542983      -0.04772427      -1.33933204
C        5.16889224       4.77626492       5.55552357       3.26626208       0.07684841      -0.40460609      -4.30489487       2.82829977      -8.24680039      -2.89448378
C        3.41150299       1.33066623       4.61516721      -4.02581915       2.55338918      -0.15788230      -5.24165611      -4.44079584      -6.03689384       1.21225248
C        5.96390061       5.55623579       4.60061976       2.25689412       2.47464299      -1.29299380      -6.39216131      -1.12271595      -0.86973154       6.10477655
C        5.36042291       5.44474080       3.26169024       2.74503358      -0.96335250      -4.20937213      -6.15021945      -0.49854146       8.35684994      -4.63530452
C        1.11634377       4.13463426       3.33775124       2.02858226       1.51902162       1.94193202      -3.85757021      -3.01833049       2.03580224      10.85348741
C        4.54871153       1.96478509       3.62726548      -2.97644548       2.92347734      -3.24727812      -5.81248784      -1.03649398      -0.58076490      -0.06487289
C        5.27242676       4.27240269       2.55383192      -2.20770966      -2.96529605       2.91267556      -6.59567732      -0.77408021      -8.21706505       4.87629110
C        1.96075588      -0.75647885       6.14064065       0.83489469      -2.49430836      -0.63527416      -4.07263851       0.83945342      -3.59966304      -0.01529185
C        0.84698427       1.41540673       5.16816881       1.24725021       0.73664244       2.25455876      -3.60530772       0.89879392       1.36326830       0.45642323
C        2.96153432       1.94049267       5.95582341      -1.79935944      -0.07797630       1.40534572      -3.83452806      -3.66482726      -2.57958446     -16.79728765
C        2.92723143       5.77231613       2.83220806      -3.54273625       1.04646613      -0.05270515      -5.15106551      -5.05126035       2.29448748      -1.16235943
27
Lattice="6.403228 0.0 0.0 0.0 6.403228 0.0 0.0 0.0 6.403228" Properties=species:S:1:pos:R:3:momenta:R:3:energies:R:1:forces:R:3 virial="26.379653532115288 -2.8806012487978325 9.10033438939633 -2.8806012487978325 29.382052443831384 -5.3396463792146145 9.10033438939633 -5.3396463792146145 19.280274427293133" config_type=Amorphous_Bulk energy=-151.44870465310206 free_energy=-151.44870465310206 stress="0.0842751664798621 -0.047562734648713065 -0.02345233996531148 -0.047562734648713065 -0.0971739261519786 -0.05610256511741271 -0.02345233996531148 -0.05610256511741271 0.014475758165991384" pbc="T T T"
C        6.74210280       0.03894206       5.22939536      -0.15642986      -0.72743873       4.23995072      -5.57408267       1.93237032       3.57624565       1.91858026
C        0.57172556       0.52099821       1.70386916       3.03768651       1.94612087       0.63868178      -4.30954527       1.97459368      -0.18237428       0.56583184
C        4.48661951       4.12827973       1.55401900      -1.76379685       2.23766621      -1.93929424      -6.44682843      -6.93504643      -0.89524347      -3.05553943
C        6.08842802       1.69518538       1.70615053       2.03052984      -0.94312532       0.88110064      -4.42634688       0.62746907      -1.48142809       2.56974747
C        3.64734643       2.08851384       1.41408881      -0.59727398      -0.15038161      -0.65807291      -5.88629684       0.72190092     -11.98801478       1.84175052
C        2.25017223       0.25152177       3.51730594      -3.28208940      -0.35245854      -0.91635824      -4.49664898       2.03133348      -3.50557323      -3.75187605
C        4.40760642       6.39681350       2.42765651      -2.91505800       2.27736975       1.05704750      -6.24575156       2.55412256       2.31755312       1.68838911
C        1.89761882       0.10728619       0.97155248      -2.04410849      -1.15392613       0.02185539      -6.82482260      -1.75611246       1.07559214       4.48263588
C        3.23721602       3.30037205       1.63503755       0.32986334       2.95912908      -0.24724647      -5.25258055      -4.96705782      14.74881048       8.84739184
C        5.36896275       3.00479914       3.78641264       2.19606149      -0.31393587       0.58568843      -6.06532162       5.06874126       7.92259846       8.96445378
C        3.87621082       6.24812734       0.00439650      -0.31268682       1.09547231      -1.66230828      -3.88305563      -1.42603886       2.24371353      -0.03358093
C        4.77996244       1.51074235       2.47183712       1.65359562      -0.54079330      -3.59913662      -7.10071504      -9.90054505     -10.14542840     -14.42806004
C        4.72997713       5.09395659       0.37630726       1.96164537       0.89761869       2.48762084      -7.03520840       1.21566825      -4.05216254       2.05442773
C        0.48031505       2.67313312       4.62711151       3.43775025       0.36057475      -0.97324720      -6.20344486      -4.87369805       4.34752658      -5.54135627
C        2.43737480       3.97782935       3.15926272       0.11016529       0.39286844      -0.69875815      -3.88104329       2.61714440      -3.88670408     -10.24890012
C        2.90108531       1.13145427       0.48963180       0.76303407       1.28163026      -0.31124768      -7.22856190       2.74563681      -0.72024176      -2.01941559
C        5.54809507       4.52767732       5.73635371      -1.21703387      -1.02257544      -2.14382656      -4.31119516      -0.84383866       1.97605776      -5.01251599
C        2.94636993       1.11814248       4.33545747      -5.16563474      -2.31792721       2.53297185      -6.73365450      -3.07292876       6.13269297       6.03025952
C        5.92847514       5.41184164       4.40917366      -2.99345107       0.66481901       2.10324539      -5.75597262       2.49432177       3.38953756       8.78259078
C        5.52798944       5.55366516       3.06231176      -3.10625531      -1.06137722      -1.20767531      -6.01902071      -4.07244691      -7.40956695      -3.13613766
C        1.73850645       3.33745017       4.29225165       2.93810832       1.98342911      -1.42285207      -4.64889336       1.69218965       0.89189133       0.42417286
C        4.18602788       1.96210511       3.89085982      -1.80710708      -0.98389564      -4.06881496      -5.19691061       2.23426915      -1.20971199      -2.04657129
C        5.26383128       4.07346692       2.70803963       2.28703317      -0.96181373       2.06387177      -6.32877098       5.90813904       6.60670594       2.20705966
C        1.28087102      -0.57064521       6.20148754       0.85800198       0.56829735      -0.52764775      -4.22461276       1.62590820      -4.40944155      -0.66679532
C        0.63212097       1.68967086       5.59959946       1.12463181      -1.91405133       3.21988892      -5.42988853       0.34768165      -5.94281319      -2.46770791
C        2.17341303       1.56855688       5.58022663       4.46013577      -4.34946024      -0.11978955      -6.08658543       3.88046098      -0.86310394       3.41886128
C        2.92001570       5.99884376       2.35217378      -1.82731737       0.12816446       0.66435277      -5.85294547      -1.82423820       1.46288273      -1.38769594
27
Lattice="6.403228 0.0 0.0 0.0 6.403228 0.0 0.0 0.0 6.403228" Properties=species:S:1:pos:R:3:momenta:R:3:energies:R:1:forces:R:3 virial="26.379653532115288 -2.8806012487978325 9.10033438939633 -2.8806012487978325 29.382052443831384 -5.3396463792146145 9.10033438939633 -5.3396463792146145 19.280274427293133" config_type=Amorphous_Bulk energy=-159.09758878442574 free_energy=-159.09758878442574 stress="0.040831737988479645 -0.03051799525693048 0.04380291660757722 -0.03051799525693048 0.02864665933302907 -0.06296981393038636 0.04380291660757722 -0.06296981393038636 -0.00542595059262824" pbc="T T T"
C        6.89375413       0.06316852       5.33482900       0.27136567       2.25178489       0.27100255      -6.93236533       0.27273798       0.44880387       3.50789255
C        0.76841425       1.05592080       1.99675724       2.00822137       0.92758940      -0.40974435      -4.42769524       3.40658500       0.15139194       3.96211896
C        4.34783335       4.09351996       1.45266071       3.39193363       0.16526323      -1.76742860      -6.78715550       4.78321156      -3.18083382       7.03322522
C        5.84805799       1.15338627       1.59256469      -0.80768865       0.29217580      -0.20558160      -4.67594190      -2.66749477       1.96828017      -5.02655887
C        3.33023303       1.81022881       1.81708268       2.50310846      -2.77777157       3.19083109      -6.06352818       1.47190063       1.88201903      -2.52495305
C        2.66484005      -0.09813245       3.93411391       0.79722212      -1.60413541      -0.26494719      -3.36489627       3.29501971       7.86190387      -0.08937245
C        4.33041668       6.07291312       2.63439425       0.09160593      -0.47347144       1.54279965      -5.16565175       1.78353050       5.57858747      -1.74896172
C        1.84274599       0.21709039       1.29196564      -1.82477673       0.39330423      -1.32371453      -7.46563805      -3.74923802      -1.51438180       2.94673150
C        3.18873554       3.23549075       1.72669519      -2.58826892      -0.81817055      -0.05768894      -6.58406876       2.24749063       3.66621314      -3.51785077
C        5.35923077       3.03953736       3.70934516       1.28684618      -0.16666980       0.33380402      -6.35514401       8.05103405      -2.18123843      -3.20369260
C        4.15610575       6.61073385       0.58433503      -4.51808282       0.84016293       0.06248685      -4.12378333      -0.11892828      -0.13064246       2.13145753
C        4.60616139       1.21014586       2.38065805      -1.67950021      -1.27351780       0.28379173      -7.48525947      -0.68751270      -5.99091864      -3.93856080
C        4.46742269       5.11209808       0.48462255       1.69090822      -1.34468655      -0.12843402      -7.06510448      -1.09272390       3.89430823      -7.29740180
C        0.60683618       2.56224753       3.82899623      -0.51387687       2.02481725      -4.01161322      -6.45120019      -3.09670270       0.51654529       1.78084970
C        2.32970882       4.10331673       2.43394393       0.16268702       5.53935604      -0.70426871      -6.41895650      -1.83723858       2.34866100       0.77459746
C        2.81144055       1.05445880       0.71390579       0.93791071      -2.54536257       0.04280180      -7.30831790       3.47042455      -0.87447624      -6.16254811
C        4.93239027       4.83039000       5.51159548      -1.90711648      -0.21283115      -1.28550196      -4.76650325      -0.15620808      -2.86540423       1.13448121
C        3.37952195       1.50506041       4.46206165       0.06174122      -0.50962467       2.55389571      -5.34646087      -0.86209682      -9.54028243      -3.54356697
C        5.90983673       5.58857610       4.73389831       2.51939098      -0.71653512      -0.14738935      -6.86222939      -1.86746056      -0.43207127      -6.03244801
C        5.72077398       5.34718116       3.11726852       1.18238269      -1.72238661      -2.47024121      -5.47981804      -2.72686285       6.82366206       4.33303522
C        1.63224011       3.62223941       3.57555949      -0.37939027       0.36496462       0.98348733      -4.72778546      -1.33719222       0.20569699       3.13397644
C        4.60223104       1.88783332       3.52369230      -2.48919171      -0.83714282      -0.05789460      -5.86137705      -5.27286563       1.74270704      10.43807258
C        5.29627658       4.11891836       2.69051542      -1.05941631      -2.62060128       0.95629274      -6.18097440      -1.46852598      -4.08925727      -1.75047344
C        0.76073509      -0.35411891       6.78549633      -0.60508617       3.29394208       0.63463057      -4.34766818       1.45496134      -1.10543951      -1.89080592
C        1.02699950       1.45825095       4.85553078       1.46458645      -1.88318404      -1.44068869      -6.13894979       2.49746841       0.65763822       2.12715910
C        2.50874306       1.79554881       5.66968425      -0.47937375      -0.80232161       2.84620774      -5.48934697      -3.11527189      -1.26924426       1.26944067
C        2.72675454       5.74272603       2.39979744       0.48185823       4.21505253       0.57310522      -7.22176850      -2.67804136      -4.57222796       2.15415638
27
Lattice="6.403228 0.0 0.0 0.0 6.403228 0.0 0.0 0.0 6.403228" Properties=species:S:1:pos:R:3:momenta:R:3:energies:R:1:forces:R:3 virial="26.379653532115288 -2.8806012487978325 9.10033438939633 -2.8806012487978325 29.382052443831384 -5.3396463792146145 9.10033438939633 -5.3396463792146145 19.280274427293133" config_type=Amorphous_Bulk energy=-161.91411789780838 free_energy=-161.91411789780838 stress="0.09788686989949273 -0.012642049685761221 0.05664145328361691 -0.012642049685761221 -0.0018909259710284336 -0.06562947025027699 0.05664145328361691 -0.06562947025027699 0.0644809130527712" pbc="T T T"
C        6.61624039       0.25020003       5.42669459       0.54926362       2.21348463       0.06869135      -6.38501638       4.30726564       1.20524342       5.23155527
C        0.71517771       1.29505020       2.04759263       1.98084455      -1.88143494       0.18801025      -4.80617702      -2.37247050      -0.34187902      -1.02064260
C        4.47514214       4.01763421       1.33541719      -2.53393146      -0.88249627       0.35840948      -7.01232113       1.16612662       1.09645523      -0.35381479
C        5.73849138       1.69411612       1.56354334      -1.67304699      -1.62378400      -3.71136401      -4.84586255       0.68619508       0.23936747      -0.29627727
C        3.21360166       1.91916858       1.75334270       1.03373300      -0.90338873      -0.48103264      -5.75431685       1.62310884       1.66104015      -3.63820022
C        2.64282929      -0.15485245       3.95330333       0.31248190      -0.13484712       0.05007009      -3.94971200      -0.44558587      -0.15001840       0.65799102
C        4.19671306       6.29007173       2.34620118       0.58439853      -1.69766252       1.29245851      -5.78916426      -0.69843745      -3.26375890       1.82587609
C        1.55261558       0.27098730       1.37354633      -0.69014884      -0.40879554      -0.58749484      -7.88086290       2.56614826      -1.18495924       3.56620075
C        3.24202482       3.44574296       1.64655304      -0.33359237       0.60762612      -0.25784323      -6.86351928      -4.02808712      -5.23350321       1.08434227
C        5.57736766       3.10754547       3.65871966       0.01507912       0.11662505      -0.09055029      -5.84444419       2.02538147      -4.62378095      -0.38393244
C        4.10782609       6.35774509       0.21997966      -1.38360023      -1.11819800      -1.83320771      -4.13922805      -1.38438946       0.31851487       2.22817050
C        4.43428412       1.28915703       2.19480645       1.94915839      -0.43979962       0.79091312      -7.55324290       3.74460109       1.31715638       6.03878936
C        4.53062114       4.91431174       0.13113240       0.37122272       3.30356508       0.99650995      -7.02877388      -2.17355335       1.60138129       5.81736268
C        0.79061696       2.69926216       4.24734996       0.18183415       2.18081646       1.87142943      -6.32208476       0.11116622      -0.46473726       1.47780661
C        2.33645389       4.18424584       2.56470258      -1.92051203      -0.96521031      -0.09654412      -6.57270674       3.33653089       3.25227722       0.62423254
C        2.81173346       0.83686449       0.74294897       0.83771209      -0.41187887      -1.53973322      -7.06914888      -0.78490400       3.76637683      -4.00704975
C        5.38297564       4.66239738       5.52673517      -0.43351030       0.08318939      -0.41382756      -4.45619949       2.62233423      -0.37401273      -5.09245232
C        3.52578247       0.93073264       4.60325243       0.09930942       3.22321322      -0.56752756      -6.36918627      -1.43527725      -1.28123163      -1.49373617
C        5.85120380       5.75639795       4.60488283       1.68606262       2.30078381       0.78901282      -6.23130360      -3.07485899      -5.49101074      -3.66056049
C        5.30084157       5.41337925       3.05264549       1.63082096       2.24806249       2.34557315      -6.16746810      -1.58262818      10.90630227       1.73497459
C        2.13571938       3.57537512       3.95286454       1.24194560      -1.86195126       0.09850203      -4.59231582      -6.22139878      -0.27024015      -3.63021426
C        4.49884924       1.66851621       3.70082738      -3.25644919      -0.24878916      -0.40219030      -5.58058917       1.91390170       4.16989026      -1.79558374
C        5.38936442       4.19728792       2.52912934      -0.94269101      -0.32605585       3.64347950      -6.46618259       0.86258316      -6.82988746       0.46709722
C        0.79948643      -0.42456725       6.80025919      -0.52207800      -1.73077237      -0.85882706      -4.36839874      -3.11445796      -0.61952501      -4.14412463
C        1.11633299       1.41149673       5.13913767       1.62908066      -0.23753241      -1.11734805      -6.68278777       0.84359936       3.51127183      -2.02966747
C        2.55690428       1.38446317       5.67075698      -3.26501674       0.03195300      -0.03989989      -6.11116740      -0.84385870      -0.36361454       0.66497703
C        2.50924045       5.84600040       2.45564495       2.85162982      -1.43672228      -0.49566923      -7.07193716       2.35096505      -2.55311797       0.12688020
27
Lattice="6.403228 0.0 0.0 0.0 6.403228 0.0 0.0 0.0 6.403228" Properties=species:S:1:pos:R:3:momenta:R:3:energies:R:1:forces:R:3 virial="26.379653532115288 -2.8806012487978325 9.10033438939633 -2.8806012487978325 29.382052443831384 -5.3396463792146145 9.10033438939633 -5.3396463792146145 19.280274427293133" config_type=Amorphous_Bulk energy=-162.33561753136757 free_energy=-162.33561753136757 stress="-0.0036938934776894563 -0.0177376815878021 0.0020267615934505007 -0.0177376815878021 0.022988439514617223 -0.06000599016187934 0.0020267615934505007 -0.06000599016187934 -0.06641429936125479" pbc="T T T"
C        6.86277088       0.13164609       5.48860179       0.80007196      -0.57851117       0.02148905      -6.61445321      -2.96549302      -5.09268564      -2.21476101
C        0.90617080       0.83359187       2.15397051       0.25065561       0.90502928       0.94348687      -4.45470792      -7.51012004       3.70742006      -1.35376345
C        4.52250939       4.10790196       1.60131039      -0.18695241      -1.06160337      -0.06679022      -6.39401641       2.19227060      -0.32647338       2.26306661
C        5.91279785       1.36894291       1.57026116       0.77039431       1.59965568       2.03721746      -4.73033958       4.90773723      -0.79957563       1.37110123
C        3.58921386       2.00057160       1.56196370      -0.58908639       0.54173390       0.21510305      -5.73770627      -7.57012408      -3.34851431      -8.18841847
C        2.58864069      -0.06214211       3.82568303      -1.86717868       0.42467823      -2.29666620      -4.33774418      -0.13112978       1.02766204      -1.21162783
C        4.26703572       6.11644010       2.45761003       0.04275232       0.99326468       0.38790758      -6.12423408      -0.86643122       6.20445520       0.97042881
C        1.88159497       0.22086327       1.36057966      -0.56065802       0.19298830       0.46208669      -7.74167949       1.15616147      -4.17527531      -0.93288861
C        3.34835306       3.41000755       1.91236511      -1.13829200       1.47333354      -0.65107562      -6.24527272      -0.78908083       1.03893408      -4.38012294
C        5.49603341       2.93243189       3.61377279       0.98405279       0.01859922      -0.76954899      -6.75091083      -3.14691581      -3.71210333       4.93919120
C        4.18972731       6.54575375       0.40850333       1.28204196       0.29272066      -1.42069559      -3.71211852      -1.87293505      -3.10205846      -5.59625661
C        4.62884635       1.15386342       2.17388040      -2.17733794       0.71207979       1.33835519      -7.70538604       1.04265629       2.76083630       6.74084855
C        4.66051633       4.99958764       0.42482953      -0.47438268      -0.40276540       1.07242944      -7.02358130      -0.07948685       0.26956863      -0.19183595
C        0.42629421       2.62556613       4.07251545       3.42998838       0.24056119       2.11292651      -6.49976816       2.57012255       0.60503561      -1.09098118
C        2.27402437       4.36006406       2.38517609       0.00074809       0.43286009      -0.44346533      -6.37939631       0.88993483      -3.17596126       2.54255186
C        2.73917979       1.13276281       0.58478603       0.78283994       0.61867316      -0.95262548      -7.10817172       5.73211044       1.96547968      -2.02663085
C        5.34587007       4.52293177       5.58730993      -0.56414398      -0.77582296       0.96667938      -4.40370631      -2.07169827       2.58611215       2.72897112