36
Lattice="6.163743 0.0 0.0 0.0 6.163743 0.0 0.0 0.0 8.218324" Properties=species:S:1:pos:R:3:momenta:R:3:energies:R:1:forces:R:3 virial="7.324435467915814 -1.3691905013204728 1.5736151506864136 -1.3691905013204728 -10.260009212337337 7.134474633720599 1.5736151506864136 7.134474633720599 -2.2939334134585585" config_type=Amorphous_Bulk energy=-175.71446352009377 free_energy=-175.71446352009377 stress="-0.27429760302486056 0.0659879275498153 -0.16140577963317193 0.0659879275498153 -0.3611820974473938 0.1611288413567597 -0.16140577963317193 0.1611288413567597 -0.5775000669839967" pbc="T T T"
C        0.57378000       1.17009000       4.07436000      -0.34300412       0.66914586      -0.05993651      -6.17812005      -4.03067705      -0.64164556       8.55703242
C        0.89629000       4.88797000       0.07276000      -1.02238187      -0.50770860      -0.13455489      -6.17145139       0.92107328       1.35671887      -3.78282522
C        2.54043000       3.44895000       7.34780000       0.22021359       0.63910730      -0.29092990      -5.41098192      19.47974752       3.11528919      19.33464050
C        4.84841000       2.41263000       7.22344000       0.80354867       0.95465735      -1.27478563      -5.84128074       4.16429364     -43.45133126       4.72353461
C        5.28632000       0.52287000       0.98788000      -0.01028750       0.36986782      -0.20274663      -5.09596478      -6.82120549      -9.62003778       1.43953879
C        4.07918000       0.53219000       1.98739000       0.68243118       0.14641219       1.72908862      -3.90908396       0.38587345       2.76306772      -1.78891874
C        0.94356000       4.03255000       5.77537000      -0.24908440      -0.05931944       0.96868138      -4.49270713      -0.83125737       5.80167504       1.76066014
C        3.03133000       5.98555000       7.72892000      -0.92077592       0.16242437       0.64477607      -3.25749710       5.31659800       1.90732613      -5.26454631
C        2.54563000       3.83700000       2.95925000       0.50297720      -0.41144954      -0.01436929      -4.55568559       5.91996702       5.65419080      -0.57654943
C        1.73480000       0.41012000       4.39522000       0.37915837       0.50773292      -0.88667099      -2.85677778     -18.07915897       5.67997392     -39.39779162
C        4.38668000       2.75246000       4.64926000      -0.07748595       0.55798945       0.36123587      -5.65937653      -1.61701418       5.18004149       2.02325353
C        2.04413000       3.34240000       1.75662000       0.01852883      -0.46351873       0.10267485      -6.83641014      -4.24585234     -11.19063859      -2.34051132
C        4.28023000       5.50125000       4.34532000       0.56997400       0.06190111       0.12369827      -4.64066726     -14.86443673       7.66742535      12.44900030
C        1.00174000       5.53857000       6.58505000      -0.02743097      -1.37925897      -0.09962813      -6.72677900       0.47014621      -4.67000914       5.08432646
C        4.73002000       4.36013000       6.64212000      -0.30901789      -0.55437219      -0.76688973      -5.54718982      -2.36045337      38.77094424      -2.42368354
C        1.94183000       3.88027000       0.38394000      -0.35443653      -0.26274025      -1.14750837      -6.66238359      -6.45613259       5.23042393      -1.11749997
C        6.09101000       0.39639000       6.35860000      -0.56123440      -0.03629898      -0.27531616      -5.14184193      15.83563475     -31.65050374      16.90078104
C        4.92413000       4.11009000       5.33541000       0.45342361       0.00824119      -0.62365159      -6.16093693      -7.99011061       5.34544785     -11.31100843
C        4.65572000       5.75968000       7.16090000      -0.65179735      -0.18247799       0.11841810      -5.04746932       3.36380053       2.79008321      -2.57939944
C        4.81604000       1.86793000       5.73643000       0.37444360       0.08065244      -0.61009250      -5.34785279     -25.01082242      28.19060657     -11.04880491
C        5.59863000       3.80368000       3.34960000       1.03906731      -0.59647039      -0.49478971      -4.29462879      14.02262731     -11.37283726      -0.00176419
C        1.11832000       2.08866000       2.02172000       0.28695102      -0.38225118      -0.15599431      -5.49983726       4.02153807       4.45037572      -0.10163390
C        2.89866000       0.46052000       4.97999000      -0.50961107       0.73188226       1.03888426      -3.12042066      22.43699340      -7.54515638       0.94189515
C        5.79133000       5.09356000       2.55370000       0.48319363      -0.41403001       0.37729889      -5.52045719      -3.32574687      -2.50020285      -1.34564241
C        3.02606000       3.07656000       4.13231000      -0.21529372      -0.36169495       0.56495520      -5.86791659       1.44607139      -3.10015117      -5.48115893
C        5.75331000       1.64757000       8.03350000       0.16005022      -0.63343223      -0.07966936      -3.50196094      -0.35726874       1.61417920      -7.16072258
C        2.20894000       3.40741000       5.11665000      -0.07488955       1.19248601      -0.13932191      -2.27143114      -2.01539304       3.83590188      -3.06095981
C        0.10200000       1.61554000       1.18283000      -0.88440968       0.16714520      -0.71874500      -2.56539135       1.61024921      -0.27283888     -16.96262427
C        2.08588000       2.85652000       6.37078000      -0.10074123      -1.02201376       0.43634044      -1.97152762     -11.31161008     -11.36397381      -1.20951218
C        2.39572000       6.01911000       6.19986000       0.76724039       0.67599212       0.89248052      -4.76684399       8.28419187      -9.09631356      36.65355053
C        0.31271000       2.12372000       3.17664000      -0.26013967       0.02696906      -0.25845907      -4.88110944      -1.16724449      20.96741784      15.46012103
C        4.52840000       5.82420000       3.02899000      -1.06967009      -0.29196245       0.01738180      -5.73893288       8.07574047      -4.26915612      -3.48127034
C        4.03542000       3.48001000       7.54095000       0.54062204      -0.15376444       0.49164624      -5.13919264      -4.57361926       2.03176182      -0.63631272
C        5.91820000       5.18782000       1.04323000       0.15900729       0.43198024       0.66338565      -6.12338733       0.89736558       4.72543005      -2.70589765
C        0.02556000       4.44826000       4.80391000       0.50507862       0.47222465      -0.86242408      -3.88357973      -1.31936081      -2.87262570      -6.07362861
C        5.96069000       1.22889000       5.21665000      -0.30421767      -0.14404746       0.56553760      -5.02738820      -0.27454731      -3.46085903       4.52433200
36
Lattice="6.163743 0.0 0.0 0.0 6.163743 0.0 0.0 0.0 8.218324" Properties=species:S:1:pos:R:3:momenta:R:3:energies:R:1:forces:R:3 virial="7.324435467915814 -1.3691905013204728 1.5736151506864136 -1.3691905013204728 -10.260009212337337 7.134474633720599 1.5736151506864136 7.134474633720599 -2.2939334134585585" config_type=Amorphous_Bulk energy=-216.25518075057064 free_energy=-216.25518075057064 stress="-0.04750030826292235 -0.006837127587249672 -0.051956212567614624 -0.006837127587249672 0.0013676919116965384 -0.0012941405402486332 -0.051956212567614624 -0.0012941405402486332 0.0007013152924049836" pbc="T T T"
C        0.75363335       1.42634319       4.18354768      -1.58131792      -3.31113378       2.29482185      -7.01075188      -6.97135980       0.36376645       5.93270270
C        1.11924445       4.94147584       0.12399459       2.01098204       0.62629078       1.46461432      -6.63321967       3.45897090       0.05055394      -5.60746422
C        2.64895772       2.90330454       7.47582568      -2.28055322      -0.29221756      -0.24797852      -6.01867093      -1.12908178       2.03209946       1.92267529
C        5.13430593       2.35917579       6.91942036       0.36807831       0.37902391       5.89240925      -6.01413103      -5.70599281       0.82453851       0.70198520
C        5.54429568       0.53711082       1.16912965      -0.52160475      -1.46973792       0.65799479      -6.38735659      -1.43818247      -8.37776430      -3.12141571
C        4.46265297       0.53632970       2.22935769      -1.70302643       3.37244527       1.52679444      -4.28245101       0.06194218       0.55347964       0.10990298
C        0.94824665       4.20525872       5.85116469       0.04420622       0.49784338      -1.39094940      -5.75245799       1.08471896       6.21749792      -1.06047350
C        3.48193954       6.96248342       7.15159794      -1.02027155       2.02630771       0.18716886      -4.23980814       1.10604266      -4.87516143       2.11548712
C        2.61511151       2.89314640       3.02387701      -1.36729189      -1.39590757       0.94705552      -3.85455848       0.80230067      -0.16992417      -5.96538734
C        1.90359710       0.65065571       3.96183640      -1.39151364       2.75824663      -1.55845612      -4.87496762       3.76182681      -0.64959813      -6.01855890
C        4.25499450       3.09718049       4.85254150       0.33552376       0.33176082      -1.87056582      -6.28172204      -6.11390335       1.18594869      -1.47281669
C        1.98928365       3.02233650       1.56627880       0.37222874       0.75689559       1.07444497      -5.87097072      -2.59604718       0.03335863       5.52403214
C        3.84698248       5.41255200       4.50141722      -2.45463301       1.88753957      -1.13176294      -6.25218574       7.18673907      -5.23952255      -6.82823115
C        1.18875230       5.65478026       6.93165866      -1.38311646      -2.27457114       0.65391929      -7.43517392      -0.81125694      -4.85772859      -3.50236686
C        4.55397474       4.71829084       6.80092474       4.20525801       0.71018664       0.43417444      -5.66470998      -4.00257571     -13.56432432      -3.44231988
C        2.07242949       3.72314598       0.27457478       1.69791879      -2.32048422       1.46471309      -6.50527964      -3.70606568       0.32650836       6.96224454
C        5.96048953       0.36113439       6.66051034      -2.74400727      -0.67629358      -1.64428306      -5.84709335       3.18611022      -1.87706469      -2.39188408
C        4.84010373       4.35480638       5.35166845      -5.17176591       0.50146446      -2.40320885      -6.97587339     -14.13776274       6.74718724       3.88922127
C        4.64800930       5.97359498       7.18808708       3.79847831       0.69495414      -1.12135002      -6.24536755       4.97545213      11.35908604       3.93522173
C        4.53764897       1.91814534       5.51303998       2.07590386      -1.76281706       3.62580487      -5.33645552      10.07104507      -4.51807772       3.12902479
C        5.94096897       4.00935262       3.58294957       0.22009081       0.83747662       2.15523921      -6.30207941       6.22150304      -6.52890231      -3.89968218
C        0.69785886       2.38657098       1.90062070      -1.70308958      -2.10219676      -2.83575808      -6.44585307       2.85665562       0.12639273      -6.12281419
C        2.92300604       0.15983861       4.87670144      -0.24463795       3.68715571      -2.39106374      -6.86503854      -8.89587637       0.68440879       9.31629514
C        5.37674693       4.75553398       2.36560684       1.34156639      -3.13153827      -1.19203842      -5.45693057       1.02513324      -2.90649307       4.36051082
C        2.81911993       3.14299912       4.38740985       3.06237062      -0.58285219       0.86181497      -6.75210034       4.71893986      -0.20806332       5.02027525
C        6.47592018       2.21210807       7.51309128       6.89343017      -0.95450822      -0.07978287      -6.51762116      -0.99213100      -5.53884530      -1.16894303
C        1.78087771       3.01230642       5.45307934       0.11272181      -0.75456050       1.20767746      -6.21384642      -4.29528833       6.60696816      -4.00320391
C        0.23441462       1.54622730       0.76894186       0.86829089       3.94571168       0.06989346      -6.66761843       0.39209747       7.47209383       2.69266316
C        1.67800776       2.16370972       6.53731785      -4.57802176      -0.47475058       1.36986739      -5.46067749       2.72977116      -2.58200256       6.88348334
C        2.50874172       6.29222296       6.34003075      -1.00209483       0.55165603      -1.45296385      -6.48025432      -0.93299364       3.59169849      -0.48676880
C        0.16115239       2.45876399       3.23868238      -1.45888341      -3.45892183       1.91931040      -6.64868714       2.91313158       1.95372931      -1.23925830
C        4.15478001       5.38841857       3.06518818       0.39980861      -0.64415626      -3.62137993      -5.89969424      -0.65865657       5.40568958      -4.79052154
C        4.03573763       3.29183762       7.52070859       1.85093704       2.13952666      -2.56720304      -5.80843620       6.10206543       1.84937802      -3.64023434
C        6.08286203       5.21149884       0.91685471       1.04628216       1.94015448      -1.52124277      -5.95166140      -3.42908923       2.04646500       4.57558977
C       -0.09980582       4.54761058       4.95201965      -4.36067936      -1.97086332      -1.28629530      -5.64174823       5.53596770      -1.05808455      -4.95316534
C        5.83604743       0.88086933       5.10769376       4.26243241      -0.06712932       0.50856415      -5.65972860      -2.37415016       3.52070821       2.64419473
36
Lattice="6.163743 0.0 0.0 0.0 6.163743 0.0 0.0 0.0 8.218324" Properties=species:S:1:pos:R:3:momenta:R:3:energies:R:1:forces:R:3 virial="7.324435467915814 -1.3691905013204728 1.5736151506864136 -1.3691905013204728 -10.260009212337337 7.134474633720599 1.5736151506864136 7.134474633720599 -2.2939334134585585" config_type=Amorphous_Bulk energy=-223.9564794593347 free_energy=-223.9564794593347 stress="0.02474175990212327 -0.026171765432895455 0.0255306643615392 -0.026171765432895455 0.043763949063762304 0.008421728076154428 0.0255306643615392 0.008421728076154428 0.07231592319078714" pbc="T T T"
C        0.27172370       1.27844346       4.02224361       2.00727386      -1.27937581       0.08603904      -6.92702199       4.10231992      -4.38778776       5.59486852
C        1.14322943       4.87027770       0.17234666      -0.44147408       1.06767050      -1.51427541      -6.53202611      -1.02245937      -1.83558919      -0.88246414
C        2.85164852       2.91175905       7.79401873      -0.61263264      -1.70591986       0.31479706      -6.06560999      -2.29972604      -0.06800847       4.99294465
C        5.28462478       2.66386536       7.07986206       2.14224674      -1.27377561       0.79413846      -6.18595928       5.02309592      -2.57857132      -2.21676271
C        5.52594475       0.43552234       0.84393902      -2.74381784      -1.93902526       0.04940795      -6.54665984      -4.57481447       2.06608504      -3.26042950
C        4.22615801       0.56189906       1.61020354       2.07711580       0.57221164      -0.45322847      -4.11639649       0.82882646      -0.33539851       2.90563774
C        1.04312754       4.34957490       5.64519987      -1.61046428      -0.34831444      -0.30469595      -6.44695343      -0.24639768      -0.20187303       1.49310303
C        3.60602273       6.92265621       7.37560549      -1.11302394       0.10123733      -0.62134676      -4.11176229       4.12333953      -4.32876534      -0.71879234
C        2.94344305       2.95568931       2.97328178      -2.78470732       0.69383032      -3.23113481      -4.51962993      -0.91975742       0.25750360       0.18182775
C        1.67030888       0.57792856       3.98305728      -1.23863918      -1.09325060       4.89790677      -4.59397776      -1.89638472       1.69672663      -1.59486677
C        4.18372349       2.93512894       4.89081912       0.03031534       2.05117723       1.09115987      -5.70826254       7.09129688       7.10660120       2.91176351
C        1.87910090       3.15027013       1.93986444       0.47002926       0.56550516      -1.36639445      -6.75213556      -1.17473560      -5.19296197       0.92909677
C        3.84796809       5.70386431       4.46433889       1.33562822       0.62718145      -0.88923186      -6.37998546       1.12849170      -1.36094600      -3.25173336
C        1.33353378       5.48965755       6.87398184       1.59324730      -1.25371141       1.22091211      -6.99373499      -6.92210620       2.33724954      -2.32788633
C        4.27761767       4.62099559       6.63132661      -0.33775825      -2.68812978       0.87183732      -5.63753953       2.16571062       4.81740997       6.64811689
C        2.03530650       3.61746270       0.63547966      -1.32418936      -0.17228184      -2.88367651      -6.70502516       0.05820476       7.04120529      -4.54092589
C        5.91479153       0.11515829       6.26662750       0.45350846      -1.25075504      -0.50939181      -5.51033581      11.45880306      -7.06323793       5.47755041
C        4.54147374       4.57997983       5.17766187       1.51743078      -0.21876679      -0.62118061      -7.25213667      -4.59513575      -4.77204824       3.81865020
C        4.84539863       5.97436164       7.08989475      -0.26008033       0.28949793       2.18420237      -6.22904938      -8.00429528      -2.32814989       1.87619412
C        5.04156960       2.15573125       5.75659854       1.23198440       2.08147790      -0.82835691      -6.71526984      -3.40190786       2.50577086       3.46834166
C        5.99634406       3.72251806       3.39618969       3.41790587      -1.93166280       0.73924167      -6.47095295      -3.39506928       7.02758445       0.45527599
C        0.75477329       2.24194857       1.87601726      -0.56111856      -0.10147582       1.67473651      -6.57618443      -2.22139590      -0.52938162       1.97278389
C        2.69903402       0.37741802       5.07556023      -0.37185996       0.65381457       1.57202809      -6.66063825      -0.51785199      -1.25617689      -3.20388952
C        5.30624303       4.63468916       2.32696667      -1.82777309       1.46845515      -0.67578112      -6.27700347       0.57146460      -0.39632519      -0.73032565
C        2.91330172       2.66803850       4.56645948      -1.09279076      -0.91854150       1.26494204      -6.20107831      -5.32189955       1.02428020      -7.22412353
C        6.80728740       2.24483463       7.58786344       1.25343455       0.53467462      -0.99506670      -5.96704809      -8.00708864      -0.22931316      -0.06997504
C        1.84503010       3.03227572       5.52651841       2.71936934       5.13551638      -0.33782075      -6.57630810       0.25493852      -3.32528869       2.38072344
C        0.31636670       1.55665476       0.59355390      -2.25272659       0.71925244       1.04919022      -6.86920096       3.27484078       0.19419836       8.47029471
C        1.89860362       2.00807686       6.75276831      -0.75507867      -0.00575688      -3.41272441      -7.30842317      -0.23352613       3.57313895       1.58895129
C        2.35828743       6.64337091       6.59276876      -0.91081030      -0.79915072      -3.27298808      -7.73788094      -0.30242568       3.17002889      -3.48393400
C       -0.11193348       2.34092204       3.09091511       1.93414847      -0.53299926       6.05026618      -6.61401685       3.87550938      -4.11568422      -2.26375334
C        4.16843671       5.55805033       2.74492692      -1.29808615       0.15796580      -0.12783479      -5.88673499      -0.77502914       2.51060306       1.85348793
C        4.23833096       3.47824257       7.75273794       1.92059846       4.22777280      -1.07634661      -6.02875955       0.35673749      -0.70628637      -7.77304143
C        5.88317381       5.22202455       0.91830650      -1.31831639       1.34986589      -0.37288213      -6.16740071       7.41093055      -2.79292746       1.02074730
C       -0.24431398       4.40776611       4.86866695      -1.73203549      -1.30087983       0.46721509      -5.99070793       6.24727250      -3.38619172      -7.58150746
C        5.81540929       1.10406300       5.36077915       0.48314633      -3.48333384      -0.83366259      -6.69466871      -2.13977598       5.86252694      -6.91594879
36
Lattice="6.163743 0.0 0.0 0.0 6.163743 0.0 0.0 0.0 8.218324" Properties=species:S:1:pos:R:3:momenta:R:3:energies:R:1:forces:R:3 virial="7.324435467915814 -1.3691905013204728 1.5736151506864136 -1.3691905013204728 -10.260009212337337 7.134474633720599 1.5736151506864136 7.134474633720599 -2.2939334134585585" config_type=Amorphous_Bulk energy=-227.78091698868113 free_energy=-227.78091698868113 stress="0.006734108081342974 0.009608613339109687 0.003054742510880968 0.009608613339109687 0.0021370079215604068 0.0466604845370866 0.003054742510880968 0.0466604845370866 0.047756125142794946" pbc="T T T"
C        0.31919007       1.02167226       4.04609885       1.38521611       1.21206260       1.96480635      -6.65124784       3.24626402       6.91301402      -6.94943254
C        1.10881960       4.95566343       0.23155604       2.12415401      -0.03066920      -1.43457519      -6.67529857       1.15962299      -1.03822513      -3.57145175
C        2.58188142       3.17570287       7.52525538      -1.25062821       1.88805034      -0.82009851      -6.11378267      -1.16944973      -3.15628821       3.46121290
C        4.95325300       2.23382132       7.03064356       1.02990066      -1.13510802       1.46074163      -6.44722755      -6.30158649       2.20145860      -0.08746549
C        5.64455798       0.44509854       1.08208766       2.09354877       0.16748280       1.07202889      -6.78926971      -3.21602515       5.40148413       3.01585011
C        4.58586284       0.65098298       2.18450967       1.64731514       1.80145077      -0.14700894      -4.37870612       0.45102218      -1.18850353      -0.21688811
C        1.05896391       4.34796635       5.68980510       0.34050206       0.33211329       0.83073869      -6.50745838       1.46590529      -0.52173213      -4.00082417
C        3.48988534       6.64066575       7.53906325       1.34612747      -0.46786003       0.84791719      -4.49882950       1.04844108       0.79750886      -2.61240557
C        2.76343670       3.77705666       3.01680063      -3.48295050       3.00503657      -0.61785288      -5.00918045      -2.51895682      -3.18948886      -2.08163355
C        1.54409462       0.18740293       3.83324445       1.50090957      -2.24972314      -0.48719514      -4.70181991      -0.75117569       0.22143591       5.91237423
C        4.17327604       3.04858647       4.85094052      -0.37501293       0.88734132       1.87030003      -6.33591531       2.25392640      -0.48647795       1.68911423
C        2.11082735       3.19073394       1.78764696       0.49367904      -0.65945168      -1.10724997      -6.72806406       3.26666316       2.13385493      -1.64522908
C        3.86269529       5.44835043       4.50356231      -0.88651411       1.04180830       0.59647340      -6.87664690       0.26337952       2.36756030      -2.21149167
C        1.16437716       5.47647836       6.81124229       0.52499274       0.10730491      -2.31268123      -7.10207858      -0.54808204       2.44082432      -0.23823072
C        4.48096176       4.65977600       6.75769542       2.80219280      -0.84183341       0.18311057      -6.05355323      -0.43114306      -4.79404334      -4.66355654
C        2.10166967       3.82324900       0.58408532      -0.62009001       0.02813411       0.16524043      -6.73407717      -1.96788769       4.72684240      -7.21117143
C        5.97779536       0.30740011       6.38005427       1.64308867      -1.62864702      -0.87250658      -5.71601715       3.58184557      -6.32750834       7.38036283
C        4.57951091       4.43778140       5.24421857      -0.36072508      -2.55104839       2.39726497      -7.82880028       5.06750114       0.62379377       2.98037149
C        4.83475148       5.96919833       7.24360277      -4.03930990      -2.65337684      -1.20904379      -6.33424875      -3.67457935       0.29037835       0.44000019
C        4.68759278       1.91681472       5.68231742      -1.80915543      -0.29804775       2.02714008      -6.23524428       1.72652642       1.76045055      -6.00577748
C        6.15346919       3.82498555       3.49502558      -0.27682355       0.37186504      -0.66176515      -6.58753348       2.98383395      -4.63376407      -9.80498188
C        1.03549400       2.37294833       1.86647323       1.58188869      -0.71081586      -0.35026348      -6.50518223      -3.76283121      -5.15548217       2.37201045
C        2.57594878      -0.03540569       4.98813109      -2.91644095       1.43730372      -0.00806757      -6.61228757       0.36862259      -0.06696235      -3.29718651
C        5.45753782       4.46688522       2.35294084       0.69291405      -0.30002396       0.12632191      -5.69519705      -1.87765412       4.88195674       1.60087334
C        2.91124609       3.02759038       4.25240117      -1.08165603      -0.15555116       1.00331558      -6.77497692      -1.95029531       0.15081612       3.14381487
C        6.26258979       2.20576779       7.54270867      -0.99834513       1.57604487      -1.74037561      -6.38308051       5.69129585      -3.21407317       3.17164702
C        1.91063001       3.14541715       5.43079259       0.83177927       0.16617094      -0.08871436      -6.05471124      -2.09693217       0.22903665       2.07109691
C        0.31882145       1.56113493       0.71872136       0.82705352       0.39480499      -1.26918863      -7.04160496       1.10959034       3.94701986      -0.92969534
C        1.57873052       2.03611836       6.56973317       0.82106422      -1.24144133       1.64916188      -6.70669551       2.41040638       0.61496049       1.82952497
C        2.28274391       6.67673555       6.52851291      -1.91322013       0.73011134      -1.36298710      -7.54648371       0.21827730      -0.34759615      -0.56243264
C        0.44575080       2.49247452       3.12143067      -0.73007896      -0.55081858       0.77294722      -6.39508092      -1.75907514      -5.91883305       4.27059938
C        4.33902792       5.57947366       3.06890469      -2.93174594       1.15099553       0.09406814      -6.12827469       1.06640099      -1.14862751      -2.95536231
C        3.95294075       3.34729602       7.30178600       0.04122292      -0.32242185      -2.45658898      -6.53569173       6.10949553       3.09157447       1.30378434
C        6.10654725       5.31606090       1.03978690       1.15641349       0.47405477      -0.91499025      -6.48031663       1.13724293      -5.10733843       3.11083744
C       -0.02325955       4.32093130       4.72994556       0.02874703      -0.51448143       1.61959862      -6.23720608      -8.66450649       4.50549399       8.65944179
C        5.77946799       1.05830415       5.22562514       0.75998663      -0.46081655      -0.82002221      -6.37912735      -3.93608319      -1.00452005       2.63230030
36
Lattice="6.163743 0.0 0.0 0.0 6.163743 0.0 0.0 0.0 8.218324" Properties=species:S:1:pos:R:3:momenta:R:3:energies:R:1:forces:R:3 virial="7.324435467915814 -1.3691905013204728 1.5736151506864136 -1.3691905013204728 -10.260009212337337 7.134474633720599 1.5736151506864136 7.134474633720599 -2.2939334134585585" config_type=Amorphous_Bulk energy=-231.17382065135732 free_energy=-231.17382065135732 stress="-0.01722374184192627 0.008379263575179652 0.038805393394424785 0.008379263575179652 -0.0019033138169613133 -0.003652354905231519 0.038805393394424785 -0.003652354905231519 0.05564233768790821" pbc="T T T"
C        0.47885534       1.23145439       4.09011952       0.59540577      -0.06092697      -0.10356981      -7.32684680       3.56902691      -1.07583052      -0.88946954
C        1.04552699       4.81778587       0.09697458       1.16971715       0.01350720      -1.98702684      -6.70524389       2.83616499       1.39312367      -3.73478477
C        2.82908452       3.05900526       7.87135950      -0.60275554       1.06004414      -0.99659703      -6.54409117       2.71760538      -6.40275145      -5.84322080
C        5.08690051       2.43136286       6.84931447       1.23573204       0.30972316       0.13498695      -6.49245248       3.01864772      -4.05799083       1.49973497
C        5.67008655       0.60341891       1.11054859       1.00311742       0.87739233      -0.51207340      -6.40531869       0.26986009      -8.17859307      -2.49619821
C        4.67752778       0.73963656       2.12825062      -0.17622120      -2.51077664       0.25518749      -4.47139558      -0.95974434      -0.98817414       3.04194885
C        0.90008241       4.28996063       5.77322621       0.72177167       0.54614698       2.10369042      -6.28275103      -2.63655213      -0.71108330      -1.65334187
C        3.56995496       6.53865768       7.43253194       0.26317276      -0.74700308      -1.44670522      -4.14982514      -5.78371257       8.10974751       3.85359962
C        2.37193180       3.83541344       3.18765150       1.20748331      -1.28464449      -0.15318193      -4.90294136      -0.23042410       3.30400229      -0.55275081
C        1.71375042       0.38219189       3.89652911       1.10982097       1.50788392      -0.43843446      -4.80275580      -3.78747648       3.03050537       0.89441557
C        4.03983586       2.98479961       4.77158733      -0.09797372      -0.00790628       0.29323676      -6.22942075       0.30968779       3.07990224      -0.75194854