64
Lattice="7.605088 0.0 0.0 0.0 7.605088 0.0 0.0 0.0 7.605088" Properties=species:S:1:pos:R:3:momenta:R:3:energies:R:1:forces:R:3 virial="17.166598152555693 5.991147713396794 -33.39090528862955 5.991147713396794 41.228166781458995 3.125136537892319 -33.39090528862955 3.125136537892319 -19.953289831841346" config_type=Amorphous_Bulk energy=-410.1350629946988 free_energy=-410.1350629946988 stress="-0.1294664702630511 -0.06332944924931178 0.1070763394600158 -0.06332944924931178 -0.3621144685712188 0.012749660799585056 0.1070763394600158 0.012749660799585056 -0.1772833377258748" pbc="T T T"
C        6.01781000       0.87688000       7.21954000       0.01509167      -0.20590047      -1.31195836      -6.13593673       2.91537361      -4.33434625      -1.84764433
C        6.44267000       0.20465000       0.91457000      -0.35239683      -0.67124929      -0.43333529      -7.50283530      -1.99016575       1.89427578      -3.67585546
C        5.70583000       5.02767000       6.86702000      -0.52315077       0.00977829       0.62833918      -8.00790464       1.77928328      -1.24023585      -0.75063344
C        0.83240000       2.30303000       7.13280000      -0.39568630      -0.39783269       0.30932734      -6.17730264       1.22301345      -1.31055249       1.83285065
C        2.12848000       5.78305000       2.01256000      -0.94175972       1.00531397      -0.01509277      -5.55768180      -2.37655405      -3.95052629      -0.23570446
C        0.07369000       3.37940000       1.82439000      -0.48185854      -0.45698218       0.59715879      -6.26725855      -0.79437996      -0.62121847       0.13028042
C        5.10089000       1.14323000       4.09875000       0.41803096       0.25992212       0.76735695      -4.99427347      -0.08799261       5.71256895      -1.10969415
C        7.33984000       0.33984000       3.65872000      -0.36339369       0.12896874      -0.31375724      -5.34245174       3.27927675       2.48531964       1.46349758
C        5.38138000       7.51880000       4.96896000      -0.22832459       0.03871468       1.02780143      -4.82931992      -1.37495611      -2.84463631      10.76950226
C        2.42945000       7.13928000       2.10034000       0.60471412      -0.32640100       0.01484946      -6.46006907      -0.89040100      -2.79238173      -1.53206691
C        7.42916000       4.19476000       3.94711000       0.12593505       0.44469563      -0.75119901      -6.90266742      -1.80538596      -0.99262929      -0.12859944
C        3.63769000       5.82465000       4.82493000       0.40147574      -0.11073621       0.29665216      -6.57882922      -0.32570480      -1.86617170      -3.92288723
C        4.81688000       5.99917000       0.10615000      -0.24264015       0.51049499       0.50339202      -7.05026402       0.47421692      -2.80498042      -3.52776407
C        1.22033000       4.63880000       0.19096000       0.49472818      -0.71821662       0.29166228      -5.48054000      -1.41406834       2.01708004       1.65434354
C        2.37686000       1.69691000       5.39405000       0.31597004       0.47462382       0.31597684      -5.66752604       1.04271531      -0.32068180      -2.87199028
C        1.01796000       2.56951000       2.76054000       0.00589103       0.86962737      -0.08698625      -6.22902763      -2.09774184      -0.08240952      -1.81476826
C        2.94130000       2.97920000       5.44366000      -0.22200257       0.61000531      -0.18875063      -5.80628673       1.06531086       1.05004148      -1.38298120
C        3.13063000       0.61190000       5.93689000       0.33630145       0.35829488       0.33445576      -5.92703792       9.68206462      23.30040924     -20.11130570
C        2.39912000       5.19418000       4.62844000       0.31302722       1.71007309       0.88356800      -6.68771971      -4.48218900      -1.51527720      -2.16677529
C        5.41659000       6.76654000       1.15741000      -0.34655460      -0.92795583       0.07476592      -6.60394937       3.54066195       3.62079038       2.63341419
C        1.25171000       5.67705000       5.19710000       0.58771049      -0.05089503      -0.56425261      -6.44437427       1.81764696       4.25502953       1.46881862
C        2.72070000       0.48944000       7.25728000       0.79590359       0.29376134      -0.53969518      -4.66178010      -3.20189785     -17.19317871     -10.64990389
C        6.73058000       1.30532000       1.89236000       0.72833594      -0.04396274      -0.26817697      -5.41953141      -0.22103120      -1.74066123       2.17477745
C        6.02875000       2.18998000       4.61201000       0.66511641       0.30151801      -0.83772789      -7.38708709      -0.66849182       3.15553517      -1.63678034
C        5.57042000       2.79864000       5.84022000      -0.30810476      -0.26586764      -0.56973397      -6.20254981      -0.40078190      -0.45626306       0.52135133
C        4.97148000       4.18100000       3.44544000      -0.03234397      -0.34796486      -0.68714488      -6.47959206       3.47431415      -2.05080265       1.63382264
C        7.54511000       5.16290000       5.04417000       0.02282162       0.03954873       0.69071235      -6.02930388       2.24919719      -3.29411528      -5.09651917
C        3.56889000       3.59246000       6.76651000       0.44937134       0.89327822       0.05322793      -6.91806340       0.10987145      -0.21055202      -0.59173363
C        7.56382000       6.83669000       6.71287000      -0.57504851       0.94612681       0.43741389      -6.88291724      -1.12838061       1.21071618       1.91077355
C        4.00685000       7.11673000       5.35902000      -0.10992251       0.02423451       0.34298538      -6.69298123       2.20830810       2.21336085      -1.38362656
C        1.26194000       0.35602000       1.48801000       0.36353199       0.36255352      -0.52401061      -7.28182918       2.54030079       3.89519527      -0.63894707
C        0.07048000       4.75512000       2.41586000       0.76388412      -0.32904181      -0.97914551      -4.79242366      -2.08934379       0.05337087       0.65099149
C        2.98214000       4.45988000       1.82506000      -0.74747305      -0.59655570       0.02787648      -7.10245268       0.44995529       0.19682733       1.22968021
C        2.33211000       3.77267000       4.30381000       0.08454001       0.56846442       0.07817244      -6.97295329       2.95414765       2.03794426       1.46529346
C        3.67347000       7.51899000       2.61663000       0.35746339       1.26423406       0.47808303      -6.33418917       2.00462615       4.30047955       3.91631715
C        0.22957000       3.51671000       0.27889000       0.20457004      -0.23374574      -0.41014127      -7.46677715       1.70303461       0.12335801      -3.15552069
C        3.37811000       5.78759000       7.53927000      -1.00226904       0.84763449      -0.44559075      -6.45872564      -2.89057702      -2.91985864       1.14560616
C        4.60339000       4.79645000       4.61948000      -0.53151056      -1.21009871      -0.19682414      -6.48838200      -0.26084064       1.37142371       7.21639899
C        6.81855000       5.63462000       6.14178000      -0.26700299      -0.10361401      -0.23940182      -5.84220127      -2.28303687       3.73863491       3.42371843
C        0.90766000       3.14539000       4.24165000       0.93552351      -0.13601239       0.28072699      -6.00951439       0.10755457      -0.85623741       0.46965151
C        0.87298000       2.03145000       5.47436000       0.24224110      -0.69939149      -0.67830593      -7.09628219      -2.70093628      -0.36293762       0.74337401
C        0.44785000       1.10430000       2.51376000      -1.21292055       0.39832591       1.39802108      -7.06860752       1.81351823      -0.53413015       0.55916376
C        1.31965000       6.57709000       6.24733000       0.21615265      -0.66667447      -1.37533188      -6.15901516      -2.09966366      -0.32064181       0.58259669
C        0.77847000       5.62012000       1.35873000       0.44853535       0.57798067       0.35471693      -6.94826025       0.69723302       0.68440445      -1.09502241
C        3.20735000       1.97174000       1.01210000      -0.39613313      -0.42340972       0.17149794      -6.11005491       7.57326375      15.73696638      15.46637092
C        3.31175000       2.14767000       2.46073000      -0.12024190       0.43569449      -0.00600591      -6.02086633       0.20130998       4.28195004      -5.30389273
C        4.45590000       4.27648000       2.15935000       0.11103597      -1.03556048       0.95354929      -6.22831479      -0.93873702       1.59097417      -5.27815917
C        4.88269000       4.12489000       5.92707000       0.09418237      -0.06582204       0.27476582      -7.34487613       0.97533379       1.61028394      -0.27581597
C        6.15075000       3.30718000       3.58175000      -0.60530651       0.01400453      -0.28938261      -7.27608485       1.72048438      -1.51913721      -0.16025549
C        7.27562000       1.23008000       4.97338000      -0.26073840       0.04252220      -0.04618877      -6.84272703       0.55465010       0.23982673       0.06622230
C        3.92849000       1.18852000       3.24246000       0.11239586      -0.57110301      -0.18482087      -6.08840073      -4.75927243      -2.31774784       1.82157020
C        4.28131000       2.65685000       0.20992000      -1.28657272       0.41573850       0.30364628      -7.34262702      -0.61255909      -1.89278728       1.72733889
C        6.32284000       4.06705000       0.22058000       0.71397686      -1.00545455      -0.26560774      -5.68644368      -2.58450682      -1.93101735       1.52683824
C        6.58522000       0.29848000       5.99038000      -0.22752428      -0.53408154      -0.34924955      -6.88400127       0.80104852      -2.22118345       1.94420486
C        0.21424000       7.02922000       0.75325000       0.00904692       0.26206399      -0.08862194      -6.66414997      -1.08669759      -1.28726192      -0.90209166
C        5.90759000       7.44550000       3.58799000      -0.78179349       0.06391887      -0.11081827      -4.95774262       3.51665614      -3.77448790      -7.98268795
C        1.87709000       1.43340000       0.43631000       0.32656517       0.52149427       0.19107553      -7.26613613      -1.53033180      -1.27827827      -1.75167351
C        2.75006000       4.48210000       0.17805000       0.03705193      -0.61311031      -0.32109572      -7.01880006       1.34298129      -1.37198909       0.18054010
C        6.32027000       2.71297000       2.10710000       1.15146051       0.15593395       0.73089183      -6.76688787      -1.61069122       1.80368663      -1.35548124
C        5.28693000       1.99604000       6.96142000       0.11179082       0.18831539      -0.25037914      -6.22439639      -2.67424034       3.45899986       0.81363731
C        5.28149000       3.43211000       1.17970000      -1.10257520       0.09611952       0.11630957      -7.35015838      -0.31736453      -0.13116288      -0.98067432
C        2.44785000       3.27551000       2.75233000       0.61512264      -0.59534832      -0.09832567      -6.38814290       1.26014397       0.42458129       3.59030750
C        4.98050000       6.94507000       2.49717000       0.89481816      -1.25240053       0.39661778      -6.21592822      -3.14033939      -4.82777201      -1.43624597
C        2.42126000       6.72387000       7.14731000      -0.40906494      -0.53858991       0.10146247      -6.10964776     -10.23823559     -19.29578356      20.02044757
64
Lattice="7.605088 0.0 0.0 0.0 7.605088 0.0 0.0 0.0 7.605088" Properties=species:S:1:pos:R:3:momenta:R:3:energies:R:1:forces:R:3 virial="17.166598152555693 5.991147713396794 -33.39090528862955 5.991147713396794 41.228166781458995 3.125136537892319 -33.39090528862955 3.125136537892319 -19.953289831841346" config_type=Amorphous_Bulk energy=-419.1884356336078 free_energy=-419.1884356336078 stress="0.016721536701373354 -0.053034478682997904 0.08294255095497416 -0.053034478682997904 -0.11895289486268472 -0.022460189590934952 0.08294255095497416 -0.022460189590934952 0.030276041532824646" pbc="T T T"
C        5.96545916       0.89462870       7.13703890      -0.21473986       0.34717787       0.00502424      -6.53721924       3.69853260      -2.32676415       0.38460292
C        6.33895377       0.25072030       0.90380565      -1.62031400      -0.58617605       0.07993005      -7.77754551      -2.63524144       0.59780330       1.14565512
C        5.77952195       5.03642998       6.86285173      -0.27929592       0.70276021       0.12584267      -8.05830155      -1.61427687      -1.23793176       1.85524891
C        0.99712597       2.20104782       7.05667431      -0.93093152      -0.08920946       0.67654055      -6.23577379      -0.75565990       1.59730213       2.64117558
C        1.98592153       5.60420046       2.07634385      -0.06747268      -0.10450027       1.52381807      -5.72221149       2.01978845       3.44844367       1.29523172
C       -0.08245774       3.26997013       1.76000322      -0.26219222      -0.40828590       1.01328222      -6.26438178       0.29982995       2.56719122       2.03652083
C        5.17689891       1.28119469       4.18799690       2.16364591      -3.52115058      -0.84796556      -5.51020694      -0.50274720      -3.67568358       1.71573643
C        7.65157907       0.34295745       3.79435448       0.12618768       0.78430844       0.80260820      -5.55365365      -1.92745635       2.41310284       2.09503140
C        5.55212093       7.51010742       4.93849734       1.09729909       0.32299413       1.69186677      -6.43730823       1.32577830       4.87477641      -0.25470592
C        2.39951752       7.06069079       2.28748554      -0.10631159      -1.12182932       0.80846239      -6.56208194       1.00536692      -4.40526485      -0.23019675
C        7.38475530       4.39053291       3.84385803       0.29364202       2.03194484      -2.60813395      -6.60537943      -2.24826840      -2.05366727      -2.00469617
C        3.67230696       5.89832918       4.50892519      -0.48324678       0.97958154      -0.06386238      -6.76004657      -1.19372133       1.73065955       1.31265959
C        4.77791433       5.86210622       0.19227653       0.22227562      -0.23243217      -0.71602538      -6.94350301       1.30514083      -2.50590599      -0.71795281
C        1.07424991       4.61337676       0.31603793      -0.22986721      -0.27500045      -0.05593909      -5.63275390       0.39102543       1.35736506       0.60046969
C        2.61974431       1.67159998       5.11883477      -0.23187947       0.73439451      -0.30909384      -5.60443923      -2.12972698       0.45841199       1.57594844
C        0.88227475       2.52548739       2.76191601      -0.43967239       0.01279146       0.62942886      -6.04959841       0.84565333       4.51273778      -1.28266951
C        3.02419356       3.08077685       5.38438099      -0.44625294      -0.80288372       0.50264873      -5.73007988      -1.01022029       0.76713986      -2.36707205
C        3.27215236       0.61646382       5.79098079       0.64016085       0.89640183      -0.67904395      -6.90241554      -0.37230690       0.41029844      -1.55103440
C        2.35285073       5.35256005       4.38944044      -0.44923752      -0.02089958      -1.17345442      -6.88500596      -2.03721295      -0.52810558       0.24258142
C        5.33117679       6.75241910       1.25975159       1.97778565      -1.52454096       1.77850130      -6.62627539       1.24210266       0.78880791       1.36879373
C        1.20920973       5.99177053       4.96511070      -0.51325399      -0.88764175      -0.47351998      -6.10733558      -0.40320329       1.47495562       1.68626486
C        2.86676368       0.38091420       7.10131101      -0.85717737       0.94187861      -1.50124680      -5.79361757       1.06894650      -1.78917172       2.27622723
C        6.66058570       1.27308441       2.01627804      -0.39025682      -0.58540294       0.50719467      -5.79149185       0.57699859      -3.14792790      -1.54439455
C        6.02181118       2.38716228       4.64221690      -0.88799491       1.08136809       0.39886134      -7.38815996      -0.01222332       0.46548611      -1.98619985
C        5.36385531       2.88704171       5.83157867       0.65503419       0.09338222      -1.19283453      -6.24030543       3.47361067      -1.56818621      -0.67699453
C        5.14774530       4.36518946       3.35260031      -1.00444697      -0.81227005       1.75481932      -6.45014647      -1.07013753      -1.12026186       2.68342599
C        7.11904003       5.63745974       4.55232687       0.39919694      -2.02125148       0.69094167      -6.85629942       4.03762577       2.63650841       4.26627537
C        3.52072406       3.63792508       6.76646585      -0.04937501       0.44126142      -0.24686218      -6.42628753      -0.58334899      -2.17861094       0.94897956
C        7.67960041       6.78621663       6.85587208       0.92875832      -0.06958322      -1.69939205      -6.81385388      -3.82508306       2.59202493       3.62227748
C        4.11555868       7.19568891       5.10646621       0.52079435       0.12845859       1.60646239      -6.71710534      -0.03671456       0.05567310      -0.28895007
C        1.36015573       0.33740046       1.55088801       0.15666724      -1.20317486       1.16455554      -7.12339299      -1.36843361       2.38197937      -0.41348644
C       -0.23732472       4.72996378       2.34291354       2.54869065       0.23078817      -0.47376822      -5.07305939       0.63352967      -3.22417753      -2.12293305
C        2.97708347       4.37462074       1.83076455       0.25209532      -0.06419106       0.46013116      -7.23556984      -1.60135698       2.41564415       1.75326037
C        2.29903689       3.88750783       4.31166865      -0.87605355       0.78323982       0.97552107      -7.15553154       1.64981324       1.76753962      -0.11907947
C        3.69843701       7.44354100       3.01180867       0.36501327      -0.49875518      -1.07994130      -6.51302976      -0.68265990      -1.50298449      -1.01776637
C        0.23805750       3.43699504       0.25732620       0.53330682      -1.56045196      -0.48534462      -7.34263889      -1.41384390      -3.17999428      -2.02833758
C        3.30503879       5.64729468       7.57912034       0.03352319      -0.36069935       0.00629617      -6.48097639      -0.12604358       2.60311581       0.07884393
C        4.58079768       4.84760391       4.57568102      -0.23956174       0.42922595      -0.14656388      -6.78295247      -0.47575984       2.01076127       1.06440237
C        6.85636070       5.74204251       6.18130479      -0.97750126       0.91963285      -0.86470797      -5.82793689      -1.17977649      -0.89513454      -2.06694460
C        0.88840995       3.33844484       4.24715627      -1.10030588      -0.24095551       0.22441168      -5.81316691      -0.13092013      -1.63777456       1.09293576
C        0.94558266       2.06595535       5.43603533      -0.27169536      -0.20261809      -1.62416879      -6.78540950       1.11701705       0.62122277       0.81468661
C        0.44361010       1.11993012       2.60534011      -0.03178394      -0.74166789      -0.24191870      -7.38541340       0.58762168      -3.53990578      -2.57234644
C        1.31071455       6.46079616       6.35352412       0.57876125      -0.24512905      -0.78173160      -6.40445343       0.85129057      -2.37900366      -4.01895571
C        0.60296150       5.62859318       1.47912125       0.83180286       0.78169809       1.15413402      -7.18247596       0.29852899      -2.92607581      -2.05911884
C        3.32014809       1.85540294       1.08013446      -0.14728879      -1.13663901       0.13951789      -6.40082717      -3.54789570      -1.08504654      -0.85544547
C        3.26618470       2.14942231       2.49847266       0.66987311      -0.45835807      -0.30300398      -6.62117981       2.35469744      -0.58225720      -0.95369942
C        4.48948204       4.48844578       2.01021744      -0.01986418      -0.31401531      -0.17856184      -6.27863444      -0.70725705      -2.39548570      -0.24518493
C        4.83442811       4.23969517       5.95998406      -0.72428114      -0.21730345       0.51182414      -7.21595767       0.74238329       1.05686806      -3.03398679
C        6.19071882       3.36801597       3.54736545       0.60653128      -1.00142151       0.23256219      -6.95551680       1.08582415      -0.40013569      -0.95374854
C        7.36571471       1.26906633       4.99765825      -0.60098458       0.70768515       0.33682285      -6.74439673       0.12872574       1.25904654      -0.17918440
C        3.85061566       1.23262855       3.45253660      -0.31809223      -0.06021817      -0.42286557      -6.67229046       1.11301387      -1.51593513       0.22698628
C        4.24811639       2.56655090       0.28319476       0.23853250      -0.24215827      -0.83712643      -7.16652754       0.30981776       3.86734004       0.14836606
C        6.24714438       3.87557473       0.15646422       1.12937458       0.96665228      -0.28666642      -5.56310266       0.13474409       1.80964946      -0.96625855
C        6.69236239       0.32977939       6.01036693      -0.96908404      -0.40772570       1.36702686      -6.57247779      -0.54429135      -1.91754285       2.19164462
C        0.10252725       6.97422986       0.86180253       0.66648065       1.38586961       0.56990367      -6.68609294       1.67260800       1.75377357      -2.20697239
C        6.41544834       6.92751712       3.88202948      -1.68751143       4.86881472      -0.43627086      -6.62102904       0.23476771      -6.77492502      -3.53934759
C        2.01100674       1.26372878       0.36475079      -0.44997414       0.27355734       0.15902041      -7.62626488       1.34077636       0.73327817       0.18904100
C        2.56427522       4.40127696       0.23813721      -0.13476052       0.14967578       0.21709758      -6.76130468       3.43962748      -0.79121853       1.65870967
C        6.17296155       2.64155834       2.08921087       0.19930668       0.90299283      -1.36350122      -6.54585588      -0.67643175       2.79542759       0.53234972
C        5.21475364       2.04686037       6.92818780       0.98698183      -0.30190539       0.53032796      -6.52266445      -3.20362789      -0.37325000       3.15015731
C        5.16264813       3.41020616       1.18613540      -1.40956901      -0.39045093      -1.51862734      -7.24199978       3.46007642      -1.13323057      -2.39577039
C        2.47000022       3.29309841       2.84657687      -0.92667405      -0.20394109      -0.22480143      -6.46506614      -1.45871541      -0.37810189      -0.40938669
C        5.09605157       6.55143062       2.78048497       0.07645208      -0.54633514       0.88688462      -5.77285115      -1.26739764       3.86320383      -1.45161181
C        2.51817610       6.65955876       7.05969561       1.45073110       1.56263651      -0.69532693      -6.66560381      -1.70330295       1.48212300      -0.14005789
64
Lattice="7.605088 0.0 0.0 0.0 7.605088 0.0 0.0 0.0 7.605088" Properties=species:S:1:pos:R:3:momenta:R:3:energies:R:1:forces:R:3 virial="17.166598152555693 5.991147713396794 -33.39090528862955 5.991147713396794 41.228166781458995 3.125136537892319 -33.39090528862955 3.125136537892319 -19.953289831841346" config_type=Amorphous_Bulk energy=-420.7529992587137 free_energy=-420.7529992587137 stress="0.0382192005580103 -0.05908560087389205 0.11246762685543586 -0.05908560087389205 -0.1559110702876194 -0.033711510745065246 0.11246762685543586 -0.033711510745065246 -0.00395852381032341" pbc="T T T"
C        6.03110994       0.80686662       7.19135209      -0.37492321      -1.08465982      -0.02000784      -6.40969273      -1.63718015       3.12400759       0.82008629
C        6.38813940       0.27019385       0.90318295       1.48047199       0.13111328       0.97258662      -7.83179938      -1.05169329      -0.91516841       0.64697091
C        5.74147566       5.02912466       6.94984825      -0.71803851      -0.42596952      -0.85875850      -8.02116849       0.17869067      -2.09245615      -4.64768893
C        0.96607685       2.31545333       7.14302466      -1.63475869       0.30895141       1.29013729      -6.26572000      -1.10256540      -1.35108731      -0.69922088
C        2.07739310       5.67688601       2.04425017       0.35285230       1.76076178       0.72774591      -5.80465803      -1.37229875      -3.29449818      -0.90449274
C       -0.08595444       3.26357950       1.82452697      -1.21992318       0.46294008       2.48836358      -6.21519599       2.08875102       3.12548503      -0.60804195
C        5.09313471       1.20663379       4.23314221      -0.85350904      -0.41118509      -0.12903896      -5.68522016       0.06284309      -2.46701443       0.96438939
C        7.56517216       0.31844308       3.80552199      -1.05897173      -0.27168579       0.18321063      -5.47390900      -0.11959602       0.86922082       0.15467606
C        5.47203232       7.47214068       4.90377331      -0.46256005      -0.77554290      -0.14914630      -6.49073814       0.51437150       2.99026900       1.80031814
C        2.51475166       6.96872087       2.08943125       0.91787055       1.99321683      -0.92795213      -6.73193194       2.15236134       3.47521865       1.00447472
C        7.28986319       4.42326339       3.92698458      -0.03162381       0.30897181      -0.13919310      -6.45906280       1.18761123      -4.75470623      -4.43710606
C        3.58162365       5.90005892       4.60412279       0.20936404       0.52359730      -0.65616054      -6.95408933       0.71786856       0.05877818       1.78001660
C        4.83028300       5.90311974       0.14758159       0.01933435      -1.53658761       0.08554052      -7.09896126       0.09864577       0.67915706      -0.14822443
C        1.07469452       4.65036652       0.29718740       0.12338450      -0.67929524       0.67039445      -5.54255010       1.65504149      -0.89623835      -1.17329812
C        2.42048272       1.77165078       5.25414105      -0.77028390      -1.88871992      -0.68212072      -5.86682311      -0.66972342       0.56574151      -0.16457183
C        0.92685712       2.57494065       2.75565232       0.49917794       0.00258360       0.59939058      -6.21262389       0.42985287       0.98247605      -0.52292732
C        2.99069515       3.13591167       5.46535815       0.13553058      -1.22033970      -1.40017866      -5.63110861      -0.27214232      -0.61130312      -2.88106855
C        3.03412614       0.61951490       5.79329245       0.61510818       1.10480907      -0.81449449      -6.83600100       2.14136768      -0.13503296       0.80392779
C        2.26060352       5.41912049       4.34024040      -1.13741516      -1.24816644       1.26590293      -6.84847324       0.73789523      -2.44112011       0.32904489
C        5.43986101       6.75087596       1.23485826      -0.00615628       0.85174222      -0.62216589      -6.69907132       1.36454910       1.55250197      -0.44578283
C        1.14983796       6.01978300       4.94203905      -0.00307050      -0.28139737       0.56531244      -6.33707434      -1.58695848       2.62203217       2.08668275
C        2.82168676       0.44337250       7.19247249       0.18990454       1.09037506      -1.20002475      -5.57147483       0.23991225       0.27701651      -1.50349576
C        6.78386808       1.25218484       1.96313749       0.31710489      -0.61837340       0.44798474      -5.77617647       0.13910893      -2.81026758       0.33687334
C        6.02963733       2.26566408       4.64264958      -0.50869042      -0.98447374      -0.87058982      -7.44407760      -0.24847932       0.86554123      -2.74603121
C        5.45261968       2.80040537       5.83357233       0.98310873      -0.31447119      -1.84277310      -6.18336544       1.74893593       0.66369697       0.21747475
C        5.00780278       4.22435228       3.48974714       0.16155396       0.15005442      -0.15035039      -6.48464554       2.38329991      -1.69415453      -0.89626492
C        7.18876173       5.66011880       4.60069658       0.92424730      -0.73530853       1.26954589      -7.27995470       0.26799687      -1.07693240       3.67363717
C        3.61379964       3.66519650       6.81354115      -0.74605315       0.19069324       2.64691464      -6.78662253      -1.29541067      -2.00963244      -0.73855322
C        7.54097792       6.72817704       6.88875623      -0.03877525       0.68337810       0.38626990      -6.71863036       1.49124251       4.24345443      -1.56272278
C        3.96235940       7.22006959       5.08028849      -0.03248608      -0.81439782       0.10358653      -6.62022963      -0.11992060       0.86631163      -0.84421156
C        1.45261912       0.35097360       1.52438645       0.09423820       1.60680588      -0.68875083      -7.13737652      -1.02365277       0.88023176      -1.42947219
C       -0.22920890       4.69980810       2.33868132       0.04829082      -1.03073222       0.47564185      -5.05438232       1.55840243      -0.83784492      -0.90372657
C        3.03114916       4.43527595       1.83802975       1.11744917      -0.33931179       0.01135772      -6.99121131      -2.11230871       0.06382456       0.57429615
C        2.27313485       3.92001728       4.28264199       0.49750402      -0.32637252       0.63399378      -6.96256894       0.17609801       1.99980357       1.53203951
C        3.81101520       7.36893369       2.77534987      -2.08211601      -0.16917669      -0.03453695      -6.91694438      -2.57407488       1.97646147       1.20713571