125
Lattice="9.863761 0.0 0.0 0.0 9.863761 0.0 0.0 0.0 9.863761" Properties=species:S:1:pos:R:3:momenta:R:3:energies:R:1:forces:R:3 virial="32.021587278102515 1.3076180739033294 -49.22579916792888 1.3076180739033294 -3.3930683909570147 9.746574996632223 -49.22579916792888 9.746574996632223 40.10913663095583" config_type=Amorphous_Bulk energy=-753.0758363240317 free_energy=-753.0758363240317 stress="-0.20069992623285574 0.035796708323328964 0.040699199539166564 0.035796708323328964 -0.21861641745051447 -0.010388030746815739 0.040699199539166564 -0.010388030746815739 -0.2884320788102197" pbc="T T T"
C        2.20903000       1.39310000       3.14876000      -0.33840400      -0.18410756      -0.35633581      -6.55130323       0.54000701       3.41663889      -5.63807565
C        0.58885000       4.45220000       6.64136000      -0.02238850      -0.28844318      -0.35701725      -5.72710302       3.67501926       9.72584153      -1.80852260
C        1.86665000       5.10017000       9.07746000       0.84154498      -0.68619767      -0.91307838      -6.91984339       5.04652920      -0.81492649       0.02629789
C        9.38587000       9.42193000       0.37917000      -0.23963623      -0.05722522      -0.68104678      -7.52461758      -0.62556019      -3.37528804       2.94643627
C        7.95917000       7.05913000       7.22031000      -0.29760572      -0.11569976       0.05195639      -4.58330918      -7.35973863      15.74872350       1.01009885
C        0.35139000       3.90228000       0.72488000       0.47380887       0.38280950      -0.51822404      -6.33251143       1.80983011      -1.80522443      -1.30014279
C        6.60391000       9.01279000       2.13964000       0.39666792       0.08802737      -1.61608518      -7.10606020       4.48990663       2.66822886      -1.14987729
C        0.62848000       9.08018000       2.87728000       0.43926952       0.06687775       0.76979931      -6.19112940      -4.44602535       3.23326550       6.74699834
C        3.09560000       4.14510000       3.78523000       0.36947515      -0.25753284      -0.40251726      -6.90837956      12.26161529       0.67759154       3.21290101
C        5.46677000       4.57545000       0.81969000       0.31983096       0.34983485       0.78847046      -6.64455969      -0.08859091      -0.65225890      -2.46310042
C        6.28407000       4.88877000       8.13497000      -0.49458454      -0.45406037       0.16668348      -7.43146178      -1.97785156      -1.29400886       2.21460689
C        8.54228000       8.34727000       6.79625000       0.39541032      -0.39573161       0.28768203      -5.07779077       8.29979253      -7.25283462       0.63658875
C        8.70831000       6.41908000       3.94525000       0.68532591      -0.56479108       0.18026525      -6.68860978      -1.69518374      -1.03102582       0.23583469
C        8.52122000       1.79448000       9.85791000       0.92642256       0.57368983      -0.07314627      -4.36733829       2.39807203      -9.00514410       6.12848876
C        3.26116000       8.42681000       0.23594000      -0.32466437       0.27969725       0.46931633      -7.24112561      -3.17965106       3.14515572       5.51072781
C        9.82923000       1.39638000       2.03296000       0.28821044      -0.25859912      -0.84540101      -5.83235430      -0.06839538      -2.59335544      -0.62850145
C        4.11380000       4.04479000       2.65210000      -0.28739289      -0.18982708      -0.53121340      -6.55410946      -3.75337222      -3.38175385       3.68296643
C        8.56930000       5.82276000       8.42998000       0.85786045      -0.34996802       1.26124687      -5.32002510       1.17105930      -5.99558044      10.57615921
C        6.36966000       2.36768000       1.73608000      -0.28230720      -0.94454868      -0.41628961      -5.36741784      -9.48420342       2.16641454     -11.57873983
C        3.64461000       4.11547000       5.16034000       0.04481563      -0.28877494      -0.36721790      -6.13861606      -6.37561727       1.10170639       1.38000967
C        3.02546000       6.93959000       4.74523000      -0.31259369      -0.87866652       0.16826766      -6.39786236       4.47828211      -2.42535870       4.81666334
C        8.82587000       3.82464000       1.22613000      -0.92440837      -0.40915374       1.44972258      -7.41335603       0.74934296      -1.15945860      -2.08254756
C        4.89017000       4.60742000       5.62565000      -0.40838677      -0.16181685      -0.29177561      -5.78740478       3.06902325      -4.75579250      -1.78451251
C        5.29791000       7.17905000       3.62968000       0.42029646      -0.10783956      -0.05709910      -5.89335731       2.88896992      -0.41659160      -0.52780897
C        5.04520000       9.33507000       6.85220000      -0.05523179       0.38326137       0.04760614      -2.70897238      -9.89995390       2.30028211       5.43177291
C        5.66415000       0.80657000       0.09453000       1.00550090       0.45210941      -0.00950172      -2.05800209      -1.31550709       2.25198505      -6.49677153
C        1.37726000       2.76519000       0.83393000       0.27068260      -0.32771159      -0.29106627      -7.85200436       0.84070008       2.18106171       0.66003563
C        1.47618000       1.17878000       4.23345000       0.05608188       1.59007810       0.34797395      -5.76009238      -1.14513107      -7.05808627       5.81713298
C        1.99458000       9.64058000       6.62850000       0.11882531      -0.06979831      -0.32682145      -6.92445778       0.98671027       0.21936852      -0.13786772
C        5.07615000       5.09295000       9.30767000       0.52262426       0.60316347      -0.00085029      -7.23237041       2.21764013      -0.29104195      -2.37115624
C        8.74942000       4.64828000       2.40868000      -0.09740327      -0.01475438       0.44800957      -6.10996661      -0.04003348      -5.37541741       4.65452326
C        3.96063000       1.77304000       1.72565000       0.40117987      -0.06829680      -0.27644035      -6.47152153       7.07361926      -2.70417577       1.27356550
C        8.80968000       2.22033000       1.34242000       0.14973998       0.08925305       0.84058053      -7.01675293      -0.93281455       3.16256962       2.27673104
C        1.97204000       6.55827000       5.67177000      -0.45780799      -0.02556816       0.13443562      -6.33026311       2.85908664      -3.40316757      -0.43854308
C        4.81699000       1.84809000       4.63819000      -0.04537915      -0.84798658      -0.75595308      -4.37479757      -1.20814573       3.88641373       2.42512182
C        5.94733000       5.95570000       7.12974000      -0.54388332       0.11199905      -0.44567157      -6.21197411       2.98803003       6.70512308       2.65625289
C        1.73156000       8.25881000       2.64696000      -0.20500998      -0.18175442      -0.50420138      -4.64323804       0.67671852       0.03009736      -0.50238625
C        6.94298000       2.31975000       3.06504000       0.22495414       0.37041563       0.35704833      -2.59123420      -1.64140055       2.68598936      10.04942660
C        2.58894000       3.55843000       0.89763000       0.82114611      -0.29221227      -0.54886694      -6.51346584       1.85195765      -3.97760054      -1.89517014
C        7.28548000       9.69352000       8.74297000       0.27517418      -1.37444189      -0.06882472      -6.72463411      -0.73866812       0.42376281       0.39861244
C        4.94111000       0.61728000       7.56464000      -1.07791964       0.21081097      -0.33617909      -6.70138663      -0.70188285       7.46177697       4.25455875
C        2.80472000       3.76057000       6.41319000      -0.93489008      -0.84531851      -0.24958913      -6.73414522      -0.42346497       1.54360015      -5.19665188
C        9.53907000       8.03178000       5.71948000       0.06740871       0.43763399       0.31707652      -4.93290730     -12.61558314       1.91957203      -1.12984729
C        4.63109000       7.04433000       5.10755000      -0.20895064      -0.85657971       0.10094411      -7.80561494      -2.02946630      -1.31837034       0.50912660
C        5.72128000       2.46545000       5.56884000      -0.50534411       0.54256491       0.17183982      -6.64306213       1.08072942       0.24415005       2.71668102
C        2.54836000       7.73354000       1.50370000       0.51004708      -0.46942392       0.40771986      -4.50913910      -2.12689051       9.95253791     -43.08257443
C        2.35429000       9.24093000       9.20386000      -0.01339663       0.60456326      -0.22614108      -4.86358423       9.38876635      -7.16726306      -4.89854891
C        7.19317000       8.23923000       9.54866000      -0.51695452      -0.15737505       0.02596704      -6.47276991      -4.58647269       5.37863398       2.16507593
C        6.13592000       7.44645000       8.89962000       0.39001108       1.22594106       0.38290163      -5.71285066       1.79235897      -1.29365683      -5.54698423
C        5.21770000       3.48644000       6.59703000      -0.99760542      -0.24945815       0.35910541      -7.09158520       0.36346174      -3.74107293      -3.40715714
C        4.04943000       4.03567000       8.70636000      -0.07928384      -0.06045760      -0.23311875      -5.96319390      -2.81897558      -0.32048172       3.31346815
C        8.28478000       5.93809000       2.62668000       0.15836034      -0.56194994       0.00390951      -6.43344670      -3.58951564       6.40632653      -3.64916651
C        1.79028000       4.14045000       3.53805000      -0.44103669      -0.50702796       0.07535050      -4.53176892      -7.70423437       5.30231254      -5.99632994
C        4.68784000       0.68270000       3.86517000       0.34234004      -0.05321421       0.64396089      -6.50206713      -2.97229416       3.78486772       0.73709933
C        7.79499000       2.71239000       9.09539000      -0.30493632       0.23021677       0.22462675      -3.67006414      -7.10836608       8.95661860      -0.95634473
C        8.65823000       7.71487000       4.54266000       0.53453969      -0.76929532       0.30740557      -6.47312229       1.09790821       2.17678876       0.09129036
C        1.74017000       0.69263000       9.47236000      -0.37272817       0.79420192       0.75357619      -2.31522796       7.08252484      13.67096272       1.73821701
C        2.15962000       5.97996000       7.89103000       0.77637561      -0.41275544       0.22718175      -6.53561498      -5.00435328      -5.16449871       2.24660036
C        7.48404000       8.74094000       4.44808000       0.50944745      -0.05451578       0.21393090      -6.88501069      -2.47337076      -5.22899237       3.17243038
C        0.66497000       4.95786000       9.72575000       0.87852210       0.18402856       0.43698073      -7.07348582      -7.22822713       8.20805940      -0.19125582
C        7.36901000       9.00542000       6.05505000      -0.36278989      -0.72838151       0.09358211      -4.69217359      -8.36320590      -0.28157967      -6.01223669
C        7.59504000       3.13046000       3.97850000      -0.27611929       0.29855951       0.71809929      -6.12325794      -0.05582962       2.55667399       3.69195664
C        1.35517000       1.76937000       2.04276000       0.45217988       0.16207154       0.15252608      -6.28851723      -3.71465640       2.20658222      -3.94461897
C        0.64363000       9.74809000       4.27706000      -0.24012947       0.82692843       0.72034855      -7.53246420       1.89556525       1.38265728      -1.73380024
C        9.37081000       1.67245000       5.28240000       0.01773199       0.17784567      -0.23173613      -6.11960902      -2.77348530       2.58414413      -0.09927335
C        7.96482000       0.04872000       3.93610000       0.67679416      -0.06231067       0.62604284      -5.86646131       4.30940570       4.32235756      -3.56026194
C        1.00021000       7.55612000       5.76019000      -0.11379096       0.87565495       0.28994017      -2.86183388       4.86481270      -6.36959761       3.38378275
C        0.62419000       3.48969000       4.01512000       0.50624678       0.77231246      -0.03610835      -6.32980720      -1.31528608      -6.15135834       4.89840886
C        9.00465000       2.04919000       8.38818000       0.23051885       0.61346035       0.19784228      -4.74613367       7.69217990      -0.56697262      -4.75162727
C        0.88214000       2.23875000       5.00030000       0.26375381      -0.55877789       0.80113271      -7.63876757      -0.05897969       7.59708088      -0.65225723
C        6.40730000       3.49360000       0.81266000      -0.00126719      -0.29112538       0.03729088      -6.30246920       1.08037149       5.76782130       0.87243483
C        3.25919000       6.80279000       2.34419000       0.06413636      -0.04540123      -0.31930736      -4.27754545       7.94892851      -6.19637609      -3.33589580
C        6.13791000       8.46249000       3.50428000      -0.97978600       0.27216418      -1.06691172      -7.13596833       1.97761873       1.02731917       0.19745735
C        2.60378000       1.27255000       6.59995000      -0.52085872      -0.87821704       0.25784004      -6.52550497      -2.80005302      -2.70062665      -0.46501809
C        9.34524000       5.16471000       6.05404000      -0.55358351       0.44652848      -0.40627006      -6.85955419      -0.40667935      -3.25218720       1.69181501
C        3.63450000       3.08264000       1.73136000      -0.05889892      -0.07196123       0.53760278      -6.67223646      -3.57446204       5.68831842      -4.07054688
C        8.96160000       6.89079000       0.55899000      -0.15450588       0.37625730      -0.14358329      -5.83110133       5.05389466       5.17322558       0.73997155
C        1.93236000       5.20313000       6.58788000       0.28507441       0.24818272       0.82220450      -7.19226100       1.22589187       3.78719195      -0.76545228
C        1.16035000       9.01043000       5.53036000      -0.45013194       0.27483939      -0.12965884      -5.48912419       2.24247390       6.61483957      -1.22433193
C        4.79290000       6.52634000       2.31060000      -0.04932621      -0.31203939      -0.12913018      -8.13630541      -5.00946444       0.14349073      -0.61284126
C        4.89734000       6.70754000       9.47958000       0.81047152       0.33039722      -1.38886215      -7.40495652       1.95124833      -1.28120365      -0.23884082
C        6.49064000       7.22761000       7.50309000      -0.25289062      -0.78043902      -1.54711248      -7.68230679      -3.02128485       0.15956939      -2.49767510
C        7.11622000       2.65853000       5.27274000      -0.36722979       0.44847803      -0.88690942      -6.68123407       2.25595771       3.35231168      -4.00278781
C        1.39384000       2.03993000       9.36882000       0.52530177      -0.10691697       0.59991371      -6.35908487       1.69246566       1.22699751       0.27424416
C        5.21475000       9.31957000       4.29628000      -0.11714174       0.21331910       0.05813595      -5.92555373       1.43350921      -4.69905626       0.27596312
C        8.30993000       0.41130000       9.71003000      -0.35682220      -0.32261537      -0.07925649      -5.65477853       1.02583611      -1.19083623      -0.07595059
C        3.60789000       7.42937000       9.15462000       0.62711853      -0.47159552      -0.79620307      -5.75269747       2.62283067      -2.81276692       2.62169224
C        2.65415000       7.26983000       3.48103000       0.82530189       1.31296429      -0.48909522      -4.43542359      -3.30303753      -5.53964853      35.59236405
C        6.85875000       2.14721000       8.07251000       0.14804900       0.43544805      -0.53279500      -6.50915471      -1.34899198       2.14558450       1.74986238
C        8.01507000       1.44587000       7.28144000      -0.28415231       0.80682768       0.42055551      -6.70718795       1.00039104       1.51589291      -2.14850593
C        5.60922000       9.71389000       1.16899000      -0.43737878       1.24163627       0.79623862      -4.70770038      -0.94695066      -9.12349669       7.49649887
C        8.62725000       8.15043000       9.85317000      -0.16252367      -0.15741658       0.55940020      -5.49974971       2.91489398      -0.10188076       0.29489969
C        9.20211000       0.56000000       4.50544000      -0.16849159      -0.30848686      -0.37978552      -6.25541870       1.55224688      -5.24354174      -0.77662617
C        4.86622000       5.03519000       2.01946000      -0.50109478      -1.06739440      -0.32099135      -6.73639360       2.85232837       2.78213648       0.43988027
C        9.43331000       9.77663000       1.99106000      -0.38266298      -0.45242412       0.24917107      -7.22936567       1.21274037      -1.71781198      -4.38777769
C        8.64262000       5.88884000       6.98887000      -1.00440916      -0.20200083      -0.32372492      -2.72903704       2.11050477      -7.01849982      -5.38165188
C        3.59360000       1.10696000       2.88694000       0.10658453       1.59879007      -0.66049665      -6.43013960      -0.91807777      -5.10727436      -0.10161662
C        7.65377000       1.58646000       2.07483000      -1.07026339      -0.28877371       0.56645030      -4.43545509      10.17696794      -7.19539446      -5.65738299
C        8.17232000       2.16048000       5.97101000      -0.94108540      -0.10223328      -0.22156377      -6.54942031       4.79714378      -4.77653631       6.32029688
C        5.31671000       1.44750000       1.32373000       0.02334121       0.00992850      -0.24672911      -5.33460027      -3.38566632       7.91730714       7.89952055
C        5.21182000       5.89040000       5.94509000      -0.41709165      -0.50435611      -0.30140863      -6.78485675      -3.25408467      -1.44743354      -2.61370506
C        6.09668000       8.44025000       6.60182000       0.84480901       0.84689148      -0.03899497      -4.36361338      15.90679560      -7.70774953       3.07404418
C        7.47656000       5.10336000       9.00391000      -0.20567371      -0.25982610      -0.23476945      -6.13350273      -3.95873878      -0.29331697      -3.41564459
C        8.95949000       4.02492000       3.78013000      -0.90645898       0.60939306      -0.52784672      -7.74012180       1.62056942      -3.98189944      -0.39421614
C        7.61022000       3.98940000       0.01784000       0.92467052       0.59692252       0.14822821      -7.21614616       5.24952235      -5.42928395       3.63954393
C        3.81510000       1.59515000       7.28517000       1.37171649      -0.14873160      -0.10772817      -6.55717117       0.64108014       1.78600473       1.80054881
C        6.37482000       3.51459000       7.48096000      -1.07962257      -1.09879611       0.34846343      -5.83761461      -3.98491578       0.89970940       0.26796210
C        9.00808000       5.19475000       4.67736000       1.08183949       0.59103613       0.23021154      -6.49868500      -0.06081636       2.14468708      -0.66797496
C        5.98730000       0.94108000       8.63601000      -0.09289944       0.95791656       0.82450729      -6.94357018       3.63160093      -1.40638188      -9.25035674
C        0.58138000       2.38421000       8.24396000      -0.29322941       0.07499188       0.35486346      -6.68155407      -9.90603145       2.42532204       3.01436043
C        7.89369000       6.80280000       1.47064000      -0.29800975       0.72180904      -0.10829753      -6.11149557       1.19517635      -3.34712613       3.78006556
C        2.72431000       7.28819000       8.06256000       0.54156743      -0.54889503       0.02996992      -6.09612687       4.21625039      -1.65156451      -4.59447768
C        3.90273000       3.18368000       7.34898000       0.30514750       1.09101232      -0.10877295      -7.39135264       5.26247705       1.42463048       1.58665400
C        5.25091000       7.32476000       1.03304000       0.08866248      -0.58554337       0.32638514      -6.65349909       3.09344715      -1.24541863       2.50441841
C        5.02587000       8.48793000       5.57064000      -0.63292896      -0.85154155      -0.78066827      -4.72927893      -8.37400447      -0.85315798     -11.35206309
C        1.83466000       2.56621000       6.19981000       1.11532424       0.03789469       0.50458489      -7.15611474      -3.02977770      -3.44320462      -0.43479097
C        6.83370000       7.86645000       1.21257000      -0.36431694      -0.31900232       0.40142415      -6.61883363      -2.98736607      -3.50122258      -1.08096070
C        2.41464000       8.72719000       7.77805000      -0.62394418      -0.37282716       0.34859138      -5.97477032      -3.19332751       2.79109698       0.76304309
C        7.96184000       9.71253000       7.32665000       0.78368033       0.08393945       0.27538245      -4.90712879       0.02981372       8.27910398       5.20445109
C        4.61608000       8.68865000       0.92926000       0.11113441       0.07917702      -0.19885540      -5.22598273      -1.67101251      -2.15079546      -0.53451488
C        7.89271000       0.09496000       2.42150000       0.13556069       0.65856151      -0.83339629      -7.18999199      -2.16248998       1.63038967       2.04523764
C        9.47434000       5.98715000       9.51123000      -0.24285822      -0.23137370      -0.01248211      -6.54239638       1.96371234      -2.71453448      -3.92412119
C        0.83535000       3.21400000       7.13215000      -0.81401545      -0.34970432      -0.15885225      -5.40188377       4.75724877      -9.37657533      -2.73224100
C        0.88704000       9.49386000       9.62792000      -0.96657546      -0.53975442       0.76501093      -2.51717890     -14.07435985      -8.83882015       2.50761669
C        2.86259000       4.23600000       9.54616000       0.19647523       0.14842466      -0.03550477      -6.78876989       0.37641434       1.64868498      -1.99086654
125
Lattice="9.863761 0.0 0.0 0.0 9.863761 0.0 0.0 0.0 9.863761" Properties=species:S:1:pos:R:3:momenta:R:3:energies:R:1:forces:R:3 virial="32.021587278102515 1.3076180739033294 -49.22579916792888 1.3076180739033294 -3.3930683909570147 9.746574996632223 -49.22579916792888 9.746574996632223 40.10913663095583" config_type=Amorphous_Bulk energy=-799.7423145395758 free_energy=-799.7423145395758 stress="-0.08936014036221211 -0.04328247846763993 0.049927686604355315 -0.04328247846763993 -0.04596237232603859 -0.01006575042553701 0.049927686604355315 -0.01006575042553701 -0.10136440951713312" pbc="T T T"
C        2.17146392       1.32304303       2.94014819       2.37726147       0.18332339       1.78185933      -6.83474966       3.84628038       1.07140347      -3.14861659
C        0.65536996       4.78146954       6.71843915      -0.16717059      -2.54760451       0.62615661      -6.12949873      -2.23461672      -3.86258516       1.39553332
C        2.07051837       5.39570197       9.27096961       0.19153524      -0.44943960       0.09637159      -6.97780501      -2.34660902      -1.23661610       0.27858840
C        9.30665074       9.26375705       0.32632129       0.97285904       0.24148004      -3.85621097      -7.38752378       2.83866768       1.59034390      -0.40669711
C        7.72164741       7.53203924       7.10953912       2.08872564      -2.43483392       1.82222882      -5.67625046       8.41724665      -6.05944380      -2.41651657
C        0.48670376       3.91064825       0.79084487      -1.60873696       1.24133804      -2.87829893      -6.62391792       5.07128444       0.34517945      -0.15917383
C        6.71366384       9.06957083       2.25814334      -0.86547007      -0.76016408      -1.70523696      -7.05824426       2.22779650      -2.88096892      -0.41590414
C        0.66396537       9.10731833       2.83554904       0.64062104      -0.12037019      -0.54322484      -6.57435973       5.50454101      -6.89368983       0.07709983
C        2.96175249       4.31180149       3.67174592       0.74189762      -0.08823553      -0.63707287      -7.34238702       2.05282092       2.50528733       0.19118644
C        5.44492544       4.46919388       0.73668620      -0.21558247      -0.73110002      -2.72868102      -6.49745072       1.64298856       4.64983119      -1.13617730
C        6.32525706       4.79530315       8.03608000      -1.01958663      -0.46060321      -2.45542747      -7.76629148       0.24112773       2.72677937       1.92664422
C        8.23224065       8.83071191       6.66433518       0.24436989       2.77699670       0.03120673      -6.46762145      -2.32758175       3.30947893      -1.46232339
C        8.12953089       6.23020819       4.08771361      -1.71632807       1.17061518       0.70049540      -6.52343306      -0.61312006      -2.54763148       4.50397892
C        8.44117951       1.66881530      10.12489915      -0.94993170      -0.12556965       0.80194121      -5.26586944       3.23366220      -0.54723031       4.54063527
C        3.49860558       8.79481418       0.34739717      -0.32157610       1.49105849       1.17464447      -6.73450113      -6.20080637      -3.18507199      -3.57640502
C        9.88191802       1.26837260       1.97743321      -0.74514837      -0.86379995       1.09709262      -5.95043470       0.29665068       1.74541982      -3.40380461
C        3.98108497       4.21557103       2.53372685       1.23567944      -0.62589347      -0.76946469      -6.53237897      -1.84516913      -4.07490534      -0.15950825
C        8.69962184       5.71101838       8.44231767      -1.06988525       3.77678367       0.34569913      -6.67403489       0.34598626      -2.79552947       7.29553351
C        6.32342346       2.16683124       1.53451358       0.35214104      -2.58362270      -2.60573021      -5.66201872       2.55216646       0.43139609      -3.47063064
C        3.48593741       4.14293014       5.01223800       0.45392483      -1.05713578       0.15656004      -6.44721840       2.55959077      -0.00873504       0.33108110
C        3.01110893       6.50546929       4.52080691      -2.42558977      -1.68156073       1.14441513      -6.46406776      -0.26144327       1.59599056      -3.94408275
C        9.01023388       3.71847075       1.42004259      -0.29732092      -1.18655871       2.06595405      -7.86258893      -2.11264272       0.99423597      -1.88062334
C        4.90480781       4.24044498       5.35622272      -0.56584661       0.53035288      -1.26935815      -6.10674095       0.63947731       1.83240935       1.67013443
C        5.26052885       7.00449652       3.42834738       0.43761465       0.12868702       0.78858456      -5.94658456       2.17476947       0.78068661       0.01549610
C        4.95375309       9.34568655       7.52775706      -0.90281194      -0.03069877      -0.50158447      -4.27522559       3.81871368      -0.52050555      -5.71681788
C        4.90332787       1.42656994      -0.17786273       1.16616075       2.22078880       3.20224735      -4.16755432      -0.49153590       0.36897322       3.76867254
C        1.63139801       2.74798609       0.76844621       0.67676419       0.66578712      -0.30803200      -7.76100196      -5.51902072      -2.82746375      -2.97349798
C        1.56925393       1.16500680       4.13532656      -0.41401011      -1.62878697       0.73369645      -5.94320854      -2.30740963       0.04138703      -0.49477151
C        2.28083345       9.70895230       6.58614147      -1.33488117       1.38249804      -1.04450472      -6.94929905       0.13159441       3.90282936      -0.06291452
C        5.22117413       5.06365841       9.13268869      -0.54849014       0.47331862      -1.36755453      -7.47440783      -0.06611467      -0.89254162       1.60511891
C        8.65680562       4.45657031       2.66352748       1.51849830       1.55490943      -1.03961231      -6.28978955       0.16735981       1.51243171      -1.69723129
C        4.16815799       1.79887864       1.94375291       0.62218514       1.23386772       1.88753242      -6.04819926       6.85882883      -0.81158114      -5.21897786
C        8.82061200       2.21440412       1.62522642       0.95838380      -0.64267739       1.94361812      -7.01646935       0.35602769      -1.63640715      -1.78665364
C        1.87736074       6.46969259       5.45841304      -0.31298702       1.48082678       0.16744697      -6.74622549       1.82108485      -3.63435255       5.12121717
C        5.06247611       1.72454997       4.55979823       1.92239596      -0.63318925      -0.49683734      -4.42726097       2.08798263       0.55638645       1.02648290
C        5.94920964       5.91347411       6.88841406       1.01928236      -1.48309145       1.46547286      -6.57523702       3.42541800       1.83845147       2.83298486
C        1.53249778       7.88913935       2.30670752      -2.28782985      -0.57692165      -1.00323956      -5.21027344      -1.37337181       1.88616192       2.50030382
C        6.72696739       2.49281470       3.40888705      -0.45251846      -1.54037350      -1.18269614      -3.36417972       0.93564346      -0.94158506      -1.05963040
C        2.88843985       3.30693021       0.60203500       0.63067160      -1.06611273       1.15345926      -6.48092949      -1.61388262       1.30670064       1.30549623
C        7.10649131       9.80874959       8.90459480       1.24260058       0.88607676       0.02568996      -6.46956330       0.62147904      -1.44811577       3.11789640
C        5.01640514       0.94207918       7.48842882       0.27072062      -0.96845805      -0.78894804      -6.13765630      -3.50229286      -0.88936862       3.23591109