27
Lattice="5.525534 0.0 0.0 0.0 5.525534 0.0 0.0 0.0 5.525534" Properties=species:S:1:pos:R:3:momenta:R:3:energies:R:1:forces:R:3 virial="-3.7407310762837427 -3.9468524469113166 -39.01351991975929 -3.9468524469113166 14.354223218366675 8.740173047719423 -39.01351991975929 8.740173047719423 -12.00222374162131" config_type=Amorphous_Bulk energy=-171.22364869310405 free_energy=-171.22364869310405 stress="-0.07102042890346753 0.05412764919724067 0.2610024988276658 0.05412764919724067 -0.1588964029103429 -0.1709902118925934 0.2610024988276658 -0.1709902118925934 -0.17597316113221012" pbc="T T T"
C        1.43997000       1.73807000       1.70668000      -0.45328339       0.06305091       0.23888112      -6.74846166       0.21495085       0.76619869      -0.11094207
C        1.07386000       0.67210000       3.95388000       0.47006088       0.05070584      -0.69135140      -7.18663206       0.66845362       2.65669525      -1.74344185
C        4.08710000       0.75921000       4.39201000      -0.43464315      -0.44551376      -0.60165167      -6.65356265       2.17009748      -2.81086639      -1.75924160
C        0.02086000       3.33953000       3.84400000       0.82400905       0.22618660       0.02262647      -5.53895407       0.81768825      -1.94978578       5.69789112
C        2.01693000       1.87389000       4.35456000       0.24020399      -0.32956726       0.78898524      -6.35425602       0.44924422       0.77578792       3.88232680
C        3.82838000       4.72720000       1.87588000      -0.51713389      -0.02547217      -1.35890884      -6.34112079      -0.96834630       1.76270140       2.77044688
C        1.99787000       3.10237000       2.22889000      -0.06329291      -0.13084229       0.35445189      -6.94337120       0.26482063       1.75401817      -0.89850906
C        2.77372000       3.82055000       1.00145000      -0.55240476      -0.00332386       0.41530596      -6.96702011      -1.38551856      -0.55189291       3.00451895
C        3.72702000       2.91771000       0.25458000       0.86585653      -1.36964269       0.65440329      -6.73933485      -1.50717820       0.08713861      -3.11263981
C        0.46088000       4.96466000       0.44861000       0.49717430      -0.34837116      -0.34539820      -6.02581505       0.56781956      -1.23640601       0.95696599
C        5.30966000       4.23059000       1.60652000       0.12848360       0.42456027       0.78141004      -7.30496398      -0.89528715       0.34041575       0.67145191
C        3.60651000       0.58647000       1.24174000       0.28420808      -0.51047954      -0.82119221      -4.94491391       2.96811306     -12.30514641     -27.49548955
C        4.88350000       2.74663000       1.14242000      -0.43008317       0.31265321       0.80459721      -6.58397606       0.45001592      -0.02874797      -1.39071115
C        4.00837000       3.62848000       4.27212000      -0.29637783       0.70680500       0.26472552      -6.87599807       1.59492643      -2.32700711      -2.71147139
C        4.67105000       1.47141000       2.04285000      -0.36358441       0.54365384      -0.66330177      -5.84396944       3.27063939       3.11995789      -1.44075571
C        1.10319000       2.87403000       5.00284000      -0.46250891      -0.13353085      -0.06450071      -6.67358970      -3.30076704       0.93841963      -3.49179371
C        2.92971000       2.69855000       3.42208000       0.63618598       0.63339845      -0.07667384      -6.13384092      -0.07871807       1.47380782      -0.75989384
C        0.45615000       1.05257000       2.53566000      -0.35845076      -0.16154670       0.43306275      -5.58797543       1.74288821      -1.36401798       1.59613066
C        2.60408000       0.93956000       2.13939000      -0.67864488       0.90696323       0.89915250      -3.81856384      -4.93678915      -0.21453342       2.07503653
C        3.20954000       1.43293000       5.37400000       0.53020594       0.15549746      -0.25486688      -6.15156626      -0.32655917       0.25793401       1.89686648
C        0.48993000       1.96802000       0.44518000       0.49278800       0.60412740      -0.50818500      -6.57253759       0.36201855       0.06829635       0.43703150
C        3.49205000       4.96130000       3.65510000       0.55033998      -0.71321526      -0.27771604      -6.62407772      -1.42170124      -1.16609110      -2.90852167
C        3.67098000       1.51524000       3.04987000      -1.20332725       0.11010818      -0.14115863      -5.24220329      -0.13631201      10.31560407      28.44665014
C        0.06885000       0.63622000       5.11107000       0.73738852       0.07786167      -0.39154098      -7.36514468      -2.47780587       1.99168438       0.69759040
C        0.85562000       4.01951000       2.80956000      -0.06149483      -0.39599090       0.69409423      -6.51186838      -0.45020362       0.05029708      -1.27060383
C        1.62881000       4.24675000       5.49058000      -0.32361716       0.42718317      -0.06530395      -6.98227994       2.39541405      -1.42139002      -2.46595801
C        1.89180000       4.90839000       3.95597000      -0.05805756      -0.67525880      -0.08994612      -6.50765102      -0.05190382      -0.98307191      -0.57293411
27
Lattice="5.525534 0.0 0.0 0.0 5.525534 0.0 0.0 0.0 5.525534" Properties=species:S:1:pos:R:3:momenta:R:3:energies:R:1:forces:R:3 virial="-3.7407310762837427 -3.9468524469113166 -39.01351991975929 -3.9468524469113166 14.354223218366675 8.740173047719423 -39.01351991975929 8.740173047719423 -12.00222374162131" config_type=Amorphous_Bulk energy=-172.92649123482715 free_energy=-172.92649123482715 stress="-0.16515199841308145 0.10621661321512856 0.2583651673545547 0.10621661321512856 -0.10167702472436056 -0.06610115708673461 0.2583651673545547 -0.06610115708673461 0.05991584250605097" pbc="T T T"
C        1.50249449       1.80673755       1.68105915       0.29693662      -1.13350310      -1.37235909      -6.65363472      -1.03740894       0.27466611      -0.35478627
C        1.07585664       0.73864150       4.01977234      -0.03167052       0.89683878       0.22170453      -7.18412996       1.27325368       1.16651961      -3.19955961
C        4.10277800       0.64951177       4.49855377       0.71212652       0.84368631       0.74994237      -6.66111642      -0.23791396      -2.05944715      -1.96489338
C        0.00852427       3.20469512       3.86113934       0.94958606      -0.60825898      -0.83500445      -5.94701423       0.49456918       3.21224670      -3.96790226
C        1.99494842       1.91933996       4.49711898      -1.32398017       1.03783222      -0.35730153      -6.13714526       3.11855667      -3.25368746      -3.24099022
C        3.83877243       4.76539073       1.91394147       0.63667625      -0.89137013       0.43469949      -6.56056406       2.25971691      -2.16877974      -2.22165759
C        2.01559705       3.15153318       2.16901498      -0.50562745      -1.29393466       1.67723875      -7.08361653       0.96515542      -0.09556441      -0.27271612
C        2.80257559       3.84326779       0.98013606       0.24910482      -0.67087888      -0.46419631      -6.87609481      -1.31077801      -0.29290061       0.40353660
C        3.74404806       2.89470452       0.20154593       0.13488091       0.77362009      -0.64880792      -6.55420350      -3.63495654       0.84979322      -2.50653463
C        0.48860796       4.94192844       0.40763821      -0.07585511      -0.57371486      -0.36493808      -6.01579853      -0.27417627      -0.76077085       1.07293912
C        5.35701275       4.18672073       1.58029734       1.11471407       0.64129331      -0.68707379      -7.39192436      -3.19902191       3.43072067       0.21819585
C        3.75496532       0.67120430       1.30417657      -0.80710606      -1.27013880       0.65565561      -5.43769306       0.03945989       0.66410129       0.35978611
C        4.85527086       2.80790046       1.09929437      -0.14909541       0.56698887       0.48479061      -6.62839326       3.73467415      -1.31140978       0.14620686
C        4.04612420       3.54478919       4.15290621       0.47054611       0.95482539       0.66285554      -6.75006885      -0.73820535      -3.62301774       2.25443089
C        4.74230328       1.67791042       2.16688088      -0.87364313      -0.51602870      -0.50191795      -6.35611418      -1.19580396      -1.86907388       1.32109379
C        1.00505680       2.86677985       4.87897678       0.24694972      -1.05321748      -0.60817445      -6.60614437      -1.09392046       3.16379072       5.33788728
C        2.85269534       2.65757318       3.38926807      -0.84711754       0.89243042       0.56718786      -5.99065889      -0.06440209       1.97831843       2.81561963
C        0.54473298       1.29516683       2.65213540      -0.61143180       0.22022102       0.77955947      -5.60018756      -8.34967858       0.95857647       1.72771561
C        2.52543413       0.84841135       2.15648216       1.00314471       1.22104955       0.81326600      -4.05090073       7.42304665       1.07433003      -0.42573566
C        3.19715233       1.34100885       5.44949053      -0.22632424       1.10841250      -0.05165222      -6.02733248       0.40057071       2.39945844       1.88973071
C        0.46901608       1.98565775       0.41834834      -0.86267612       0.40874386       0.54946284      -6.45822717      -0.54844192      -0.28083968       1.08609522
C        3.38364394       4.81805376       3.55370499       0.08679408      -0.72199064       0.96972051      -6.65425269       2.72454397       2.66021264       0.46851773
C        3.68906315       1.45799733       3.25789172       0.24908608      -1.25721326      -0.53497273      -5.44262695       0.01433466      -2.33029656      -4.01346352
C        0.02984090       0.63023101       5.10923248       0.27901326      -0.26922228      -0.40530689      -7.51854098      -1.44072219       0.39084180       1.86513107
C        0.83515348       4.01271846       2.74827079      -0.26566475       0.22738248      -0.36379853      -6.77821198      -0.23450681      -2.55374559       1.39842101
C        1.61743260       4.22297941       5.38424419       0.11307683       0.53142925      -0.52387072      -6.82552780       1.57823700      -1.50262388      -1.46920233
C        1.82728895       4.89108656       3.82596894       0.03755626      -0.06528229      -0.84670893      -6.73636791      -0.66618189      -0.12141876       1.27213412
27
Lattice="5.525534 0.0 0.0 0.0 5.525534 0.0 0.0 0.0 5.525534" Properties=species:S:1:pos:R:3:momenta:R:3:energies:R:1:forces:R:3 virial="-3.7407310762837427 -3.9468524469113166 -39.01351991975929 -3.9468524469113166 14.354223218366675 8.740173047719423 -39.01351991975929 8.740173047719423 -12.00222374162131" config_type=Amorphous_Bulk energy=-172.79899746421438 free_energy=-172.79899746421438 stress="-0.011160132797781368 -0.02302429239520951 0.22941763733710124 -0.02302429239520951 -0.12541897073459304 -0.01745194162121299 0.22941763733710124 -0.01745194162121299 0.043204970780196535" pbc="T T T"
C        1.45910055       1.78765337       1.69696736       1.50391598       0.53841982      -0.61225699      -6.64616228      -1.14813669       1.72036479      -0.61599191
C        1.08659229       0.76371701       3.99153911      -0.71996981       1.13539071       1.22529733      -7.20159285       2.79372944      -0.29780982      -1.43084391
C        4.04012524       0.58084964       4.28272142       0.15787604       0.97202372      -1.09777493      -6.38353698       3.75116743       0.36159126       1.98289897
C        0.03799612       3.40341398       3.90598970      -0.11541849      -0.02182111      -0.81938830      -6.04933866      -0.38405992      -4.09438899       5.35067463
C        2.07523077       1.88093116       4.44742599       0.04187368      -0.07175264       0.12987443      -6.26493084      -3.69756992       1.98799912       2.11384203
C        3.73077734       4.73424759       1.90730274      -0.32437852      -0.46010879       1.13403249      -6.68447059       1.97581561       0.76268094      -1.57570495
C        1.91038657       3.14645765       2.18836515      -0.42268645      -1.22980768       0.25857386      -6.77588750       2.42574973       0.24769341       2.89520794
C        2.76588274       3.77020503       1.06962253       0.16789029      -1.00186359      -0.80408299      -7.03962389      -0.99564145       1.54386090      -1.37472266
C        3.71204627       2.87371957       0.14358691      -0.73499579       0.49164508       0.05965413      -6.76091423       0.38143281       1.37090892       0.77850268
C        0.52854713       4.93255533       0.49110387       0.44281905      -0.42308069      -0.43278547      -6.14034787      -1.15218639       0.91428419       0.04623399
C        5.25909584       4.25604510       1.62066030       0.03024285       0.16060098      -0.86554395      -7.34520069      -0.05649204      -0.40464932       0.01006858
C        3.71957943       0.61448282       1.15939817      -0.57046105       0.20281962       0.57023545      -5.38459950      -0.84971720       0.17931552      -0.10939372
C        4.88418820       2.80834374       1.08212589       1.17463188       0.56495363      -0.11965713      -6.48575291      -1.16033837      -1.28779908       0.32510825
C        4.05680115       3.50382954       4.22409289       0.35609835       0.55551462       0.12347885      -7.11050727      -0.15226982       2.05797889      -0.87016549
C        4.71285387       1.54124657       2.05224616      -0.01470169       0.45921979      -0.68806887      -6.19106301       2.19374204       0.75754998       0.88058375
C        1.01205838       2.93311323       5.01824119      -0.26833024      -0.34602012      -0.21599918      -6.67946814       2.56216868      -0.58061820      -6.21765978
C        2.91046001       2.69558917       3.48435221      -0.07026962      -0.79697701      -0.13808729      -5.92567293       0.24685921      -0.73184291      -3.55690156
C        0.54763951       1.10422428       2.59028897       0.02319822       1.04070649      -0.22045190      -5.64816690      -2.20003340       0.21818591       0.04104768
C        2.61017750       1.01491541       2.09448633       0.29347218      -0.08074622       0.06276424      -4.27838119       0.89407045      -4.12169365      -1.02735565
C        3.25342005       1.42588948       5.36972100       0.25799754       0.03617931       1.13286751      -6.12131918       0.18695743      -2.59989148       0.57888217
C        0.45472757       1.99506512       0.39625898      -0.88902373      -1.14684554       1.78550943      -6.32972399       0.71207165      -1.86170155       3.87730274
C        3.47824098       4.80272973       3.60482372       0.42661456      -0.95734675       1.31597679      -6.93994665      -2.50025504       1.45165013      -0.13085797
C        3.67725260       1.46012778       3.09876647      -0.94552371      -0.60261013       0.69645325      -5.78414522      -1.39160516       2.37915505       1.77284945
C        0.10310726       0.60486437       5.15799724      -0.41938642       0.65786245      -0.42845006      -7.08634330      -4.81923534       1.69377742      -0.70462257
C        0.73936376       4.06586648       2.84282761       0.40438069      -0.00188444      -0.43784648      -6.51006882       1.83839580       0.33579508      -2.64902304
C        1.67010440       4.18811202       5.48823315      -0.21742669       0.05473464      -0.49082729      -6.78095360       0.55287070       0.77693216       0.24197315
C        1.87063447       4.94374484       3.94834490       0.43156089       0.27079385      -1.12349690      -6.25087848      -0.00749024      -2.77932866      -0.63193279
27
Lattice="5.525534 0.0 0.0 0.0 5.525534 0.0 0.0 0.0 5.525534" Properties=species:S:1:pos:R:3:momenta:R:3:energies:R:1:forces:R:3 virial="-3.7407310762837427 -3.9468524469113166 -39.01351991975929 -3.9468524469113166 14.354223218366675 8.740173047719423 -39.01351991975929 8.740173047719423 -12.00222374162131" config_type=Amorphous_Bulk energy=-172.9576197399382 free_energy=-172.9576197399382 stress="-0.05778512256368108 0.043830311463511004 0.24545199218460184 0.043830311463511004 -0.11899724923317366 -0.08155421775263552 0.24545199218460184 -0.08155421775263552 0.06549107307439696" pbc="T T T"
C        1.47810971       1.82109256       1.72433979      -0.29352637       1.00265239       0.64464919      -6.64399843      -0.09833144      -1.18481313      -1.78347089
C        1.07322700       0.71125687       3.91179682       0.16169111      -0.59265829       0.58376575      -7.20526188       1.41892970       1.20611005       2.83348358
C        4.07076572       0.51004248       4.54944328       2.31965427      -0.57736706      -1.99476918      -6.31379470       1.67927921       2.72553726      -4.01002678
C        0.04998356       3.29754241       3.90745071      -0.35294351       0.24299394       1.17450573      -5.93683439      -1.76055638       1.36653707      -3.44313232
C        1.98784698       1.88736131       4.47502992       0.44778439      -1.07872697      -0.44758657      -6.40109246       0.34349794      -0.47675602      -1.07220735
C        3.81656562       4.76766781       1.82702725       0.22177349      -1.37397403       0.87867438      -6.64766877       0.24740147       0.89140778       0.33809863
C        1.96342269       3.14450713       2.20150634      -1.15413984      -0.41901708      -0.68656860      -7.00251697       1.71436914       1.47527852       0.31359080
C        2.78682984       3.82046466       1.00930259       0.70511426      -0.51479485       0.22551640      -6.95266691      -0.53439846      -0.46376882      -0.48122006
C        3.76011023       2.87987228       0.14797018      -0.10900192      -1.39765106       0.79057866      -6.74868802      -2.12958696       1.87851155      -0.02673780
C        0.55043990       4.91480950       0.46249204      -0.80553098       0.17689460       0.45510522      -6.15338182      -2.53289558       2.28598964      -0.07763751
C        5.32945152       4.24046991       1.54666886      -0.27317383      -0.63836129       0.11238658      -7.56709234      -1.73886783       0.34797257       1.11403227
C        3.68141885       0.67616941       1.24909611       0.12997774       0.61559541      -0.04845239      -5.33566981       2.39069491       0.10670114      -1.68652772
C        4.92528061       2.80718672       1.08522819       0.27344425       1.02022857       0.57156957      -6.55827555      -1.85718589      -0.21601632      -0.15839649
C        3.97716075       3.50385319       4.13500150      -0.74807949       1.27183168      -0.46502158      -6.77465987       2.24222185      -1.11670687       2.91562403
C        4.77209580       1.63597528       2.14276085       0.16345383      -0.04721373      -0.54317579      -6.24149338      -2.65740501      -0.29913775       0.90213029
C        1.00474443       2.88722102       4.95604020      -0.21713779       0.38902422       0.30607427      -6.83106328       0.45435262       0.90273586       0.10179612
C        2.82698669       2.68156348       3.44659590       0.81482301       0.71739250      -0.12097488      -6.01103010      -0.21903672       0.87613879      -0.04039316
C        0.53364730       1.16955568       2.60500161       0.19412907      -1.06124479      -0.07990888      -5.69818720       0.48001339      -0.47911396      -0.98742613
C        2.62519368       0.98137434       2.14415249      -0.34989942       0.43404804      -0.43506185      -4.21971226      -1.88324794       0.16410080       2.33802660
C        3.21509954       1.45697296       5.41625810      -0.57386976      -0.19912670       0.11130958      -6.12839793      -0.64082934      -1.76031976       1.36833041
C        0.46093550       1.99927982       0.42975008       0.80398726       0.80638463      -0.79773199      -6.29945554       1.81814970      -2.00383291       1.31006982
C        3.42217859       4.80499218       3.59070693      -1.63681870       0.48566249      -0.48227184      -6.63060888       0.91300969       2.55890720      -1.10465521
C        3.66346886       1.52235690       3.20817166      -0.54438606       0.63172188      -0.44657318      -5.41929247       0.67964662      -4.47508962      -0.19370854
C        0.06625478       0.56962240       5.16617073       0.97421579      -0.09343839      -1.38858616      -7.39504681      -1.87965279       1.32598446      -0.10857915
C        0.77893167       4.03134253       2.72164705       0.13793369      -0.10078531       0.68329890      -6.57284675       1.19089385      -1.69054482       3.32930801
C        1.60951452       4.20704690       5.42274321      -0.90744463       0.72460367      -0.04455114      -6.84415315       4.13325027      -1.97327080      -1.19682654
C        1.87672566       4.90234026       3.87513759       0.61797015      -0.42467450       1.44379979      -6.42473009      -1.77371601      -1.97254191      -0.49354493
27
Lattice="5.525534 0.0 0.0 0.0 5.525534 0.0 0.0 0.0 5.525534" Properties=species:S:1:pos:R:3:momenta:R:3:energies:R:1:forces:R:3 virial="-3.7407310762837427 -3.9468524469113166 -39.01351991975929 -3.9468524469113166 14.354223218366675 8.740173047719423 -39.01351991975929 8.740173047719423 -12.00222374162131" config_type=Amorphous_Bulk energy=-172.79717670709593 free_energy=-172.79717670709593 stress="-0.03686675390916027 0.03578062167614881 0.2255719162029987 0.03578062167614881 -0.08150984629318499 -0.04799165736395693 0.2255719162029987 -0.04799165736395693 0.05174367622197466" pbc="T T T"
C        1.49974058       1.80181639       1.69877793      -0.21085717      -0.76415616       0.06209841      -6.75457883      -1.54818857       0.37338312      -0.79922133
C        1.08322159       0.68998202       3.95719615      -2.05131004      -0.96510339      -0.53947520      -7.30745137      -0.97186183       2.26361934      -0.01631681
C        4.00160180       0.62191427       4.55363615       0.86651076       0.38529854      -0.26760500      -6.24273818       5.59697334      -1.50988063      -6.52732828
C        0.04223554       3.33110213       3.89018112      -0.66067697       0.27751134      -0.32744437      -6.06302519       0.15236869      -0.25091937       2.57728212
C        1.94156362       1.89453275       4.40848783      -0.01822611      -1.32467303      -0.44941627      -6.42660394       0.87612830       0.52185792       2.36636006
C        3.80351886       4.70788288       1.89760795       0.77657000      -0.71635846      -0.66323322      -6.55802349       0.92045704       3.89004818      -1.48134096
C        2.07449888       3.12180721       2.15019608      -0.23776520       0.61128700      -0.69276710      -6.88768711      -2.22409929       1.98461659       0.94076600
C        2.81916761       3.85151940       0.95571915       1.72507510       0.23846527      -0.78790530      -7.06719761      -0.04620872      -1.89638252       1.93914104
C        3.73837110       2.92956781       0.14913813       0.38047878       0.38339876      -0.86123342      -6.84837004      -0.17600877      -0.51632819       0.68509662
C        0.51410343       4.89058282       0.46742987       0.01738022       0.21302233       0.70369089      -6.01271269      -0.48806232       2.50379979      -0.36212172
C        5.31714576       4.23251529       1.63089663       0.95579109       0.06486171      -1.77346261      -7.35259481      -0.92596084      -0.81522773      -0.56948487
C        3.68959842       0.63783376       1.17857517       0.73837188       1.89076995       0.67479995      -5.13460332       1.07311188      -0.36004465      -0.05572276
C        4.88915094       2.73767353       1.16681045       0.09746022       0.15506997       0.83998183      -6.51700899      -0.13565275       1.92167340      -3.36370161
C        4.06747757       3.54716930       4.22603179      -1.94613314      -0.60713569      -0.87289643      -6.92079042      -0.29780086      -1.27754809      -1.97660921
C        4.70772632       1.57346057       2.12057980       1.90769821      -1.29027074       0.93605520      -6.25026636      -0.08784677      -1.12423127       1.73849708
C        1.02022235       2.97238110       4.99899331       0.91914018       0.56337978      -0.37337235      -6.76313204       1.23980828      -1.22371768      -4.47417334
C        2.84631275       2.63712263       3.40730915       0.47043325       0.48020353      -0.16753579      -6.00653331       2.38075430       1.39398314      -0.30474348
C        0.51940137       1.23687819       2.63254845       0.79831035       0.57591707       0.88241894      -5.66614342       0.94019739      -1.23429319      -1.26823391
C        2.56847134       0.90855607       2.09919340      -1.58465231       0.67770106       1.16630662      -4.19792217       0.43782396      -1.59399772       1.31798658
C        3.16306259       1.47733358       5.35839663      -0.57474883      -0.18698770       1.52141949      -5.89679242      -1.67871832       1.21849785       4.18378493
C        0.50863272       2.03243200       0.42541156      -1.20177496       0.54808072      -0.04220347      -6.41135777      -1.24473315      -2.31982833       2.75452809
C        3.42861346       4.84217616       3.56444587      -1.11347717       0.69013875       0.35765804      -6.55400025      -0.83730637       0.24692207       0.88203136
C        3.65657386       1.40075288       3.17212085      -0.13288743      -0.83998815      -0.25496296      -5.56252643      -1.54930221      -0.24812436       0.89112564
C        0.03613183       0.63064729       5.13261372       0.57770909      -0.07740047       0.11898280      -7.34757549      -1.49421923      -0.39036377       1.55022261
C        0.80665089       4.01690926       2.77690699      -0.59326530      -0.01163789       0.61458973      -6.60540020       1.18266452      -1.41423307       0.36990391
C        1.72462912       4.22646196       5.46370368      -0.42513006      -1.15095252       0.35353572      -6.89150013      -1.68361691       0.10614532      -0.87435237
C        1.83856569       4.88092874       3.87458221       0.51997556       0.17955843      -0.15802411      -6.55064074       0.58929922      -0.24942616      -0.12337538
27
Lattice="5.525534 0.0 0.0 0.0 5.525534 0.0 0.0 0.0 5.525534" Properties=species:S:1:pos:R:3:momenta:R:3:energies:R:1:forces:R:3 virial="-3.7407310762837427 -3.9468524469113166 -39.01351991975929 -3.9468524469113166 14.354223218366675 8.740173047719423 -39.01351991975929 8.740173047719423 -12.00222374162131" config_type=Amorphous_Bulk energy=-172.3630405457607 free_energy=-172.3630405457607 stress="-0.035433286554419505 0.010646409548233699 0.23692197230774428 0.010646409548233699 -0.12349331414299203 -0.060698920924720304 0.23692197230774428 -0.060698920924720304 -0.01665174916990271" pbc="T T T"
C        1.46793989       1.88591623       1.71807912       0.98077688      -0.45057132       0.90887868      -6.71427739      -0.44365317      -2.50330005      -0.01410919
C        1.15402756       0.68024594       3.97122650      -0.25237256      -1.51745782       0.49779710      -7.15876278      -3.46578605       2.21562926      -0.89494038
C        4.01788277       0.65938223       4.35791370      -0.12725024      -0.53306594      -0.14287776      -6.53199766       5.83492287      -2.46952091      -2.23000697
C        0.03521292       3.33247749       3.99301397       0.09577643       1.68318934       1.43922259      -6.00813478       1.76094709       0.98693464      -2.80520313
C        2.00061706       1.86566894       4.42002671       1.12985730       0.85479977      -0.91639065      -6.42791157       1.47337232       0.98916729       2.09866132
C        3.76627158       4.72962094       1.86870813       1.07484228      -1.73142066       0.66451544      -6.79227689       1.57151707       2.35792254      -1.09183366
C        2.09333642       3.19914331       2.17039052       0.76712391       1.66704453       0.30399336      -6.85141939      -3.36554591      -0.51087558       2.10167770
C        2.82941008       3.79841349       0.99757615       1.53729855      -0.22586459       0.02921081      -7.03670041      -1.46474493       0.20669734      -0.05067290
C        3.72310190       2.80226754       0.21112418      -0.14986490       0.89373901      -0.48005681      -6.58391600       0.98255869       5.03061599      -2.24639035
C        0.44522196       4.92531653       0.42435217       1.04093014       0.44604726       0.75457247      -5.91523963       0.74712309      -0.09528121      -0.24402717
C        5.21530298       4.22820406       1.60404358       0.65989996      -0.63532094      -0.83506988      -7.35988884       1.54208252      -0.51780668      -0.35754556
C        3.66113856       0.61826842       1.20971705       0.01910470       0.33506045      -0.38541440      -5.45578234       0.36014736      -1.32945568      -6.12048229
C        4.84861500       2.75083206       1.15352304       0.27724322      -0.24806901       0.03079904      -6.53501896       1.46111605       0.12879746      -1.94116493
C        4.09383503       3.54810954       4.27302114       0.12610708       1.34275650      -0.30974321      -6.85999562      -0.83174095      -1.42930539       0.07604758
C        4.64759146       1.59356529       2.10617476      -1.73971817      -0.67088974      -0.27578317      -6.03087014       4.06896673      -1.80913067      -0.27925635
C        1.05536072       2.87766462       5.01445857       1.13330288       0.91124074      -0.17998162      -6.73029852       0.43716805       1.23459229      -3.02562815
C        2.91772046       2.68457236       3.44386348      -0.99379704      -0.36705659      -0.94313298      -6.00677142       0.99072985       0.75207358      -1.06084553