27
Lattice="5.407371 0.0 0.0 0.0 5.407371 0.0 0.0 0.0 5.407371" Properties=species:S:1:pos:R:3:momenta:R:3:energies:R:1:forces:R:3 virial="50.03956533484775 -1.3859214744663537 15.835384845385583 -1.3859214744663537 57.7188616270723 13.073109340387933 15.835384845385583 13.073109340387933 43.34004142006139" config_type=Amorphous_Bulk energy=-148.98051490516312 free_energy=-148.98051490516312 stress="-0.6244686165360716 0.08458033284837063 -0.19136271700806717 0.08458033284837063 -0.8318895518448683 -0.29268940476472105 -0.19136271700806717 -0.29268940476472105 -0.601744969481613" pbc="T T T"
C        1.21052000       2.02569000       5.31804000      -0.78724171       0.07707481       0.21615974      -5.34177477     -10.91006107      16.61950861      10.34515667
C        1.66093000       2.17594000       2.38906000       0.36362052       0.14936997      -0.26803632      -2.68632232      22.18243814      -0.68330198       7.80681021
C        0.01590000       5.25937000       3.11729000       0.75394126       0.79994338       0.30337463      -6.06664029       2.58261049       5.44700917      -6.34636259
C        3.82024000       3.16460000       0.53518000      -0.79264213       0.76458109       0.84208074      -5.92051358      -7.36431904       1.97377928      -4.33484491
C        2.37851000       1.89385000       4.62271000      -1.07128432       0.35581188       0.38638518      -5.08754497      10.35915789      -3.21573920       0.37003528
C        2.21330000       4.78296000       1.74481000       0.52015113      -0.08398996      -0.30746086      -5.99948553      -0.03654731      -0.02495492       9.81174468
C        3.24993000       2.07202000       1.45622000       0.06153064      -0.83988002       1.11088284      -6.31983708      -3.78684347       1.13593560       1.53297220
C        3.13398000       0.16564000       2.71302000       0.84793061      -1.00080229      -0.02221388      -6.11955488       2.45305408       0.66854927       0.43311149
C        4.96227000       3.96407000       0.70854000      -0.10801510       0.70074826      -0.92230062      -6.11621810       2.73518778      -4.17895729       7.26692556
C        5.20304000       0.85066000       1.72184000       0.10757772      -0.49619449      -0.45958482      -6.18930229      10.64078930     -24.99238133     -11.47273781
C        4.83817000       5.38629000       0.67172000      -0.88104414      -1.19142045       0.40780776      -6.12307640      17.39430770     -10.29659117       0.80741674
C        0.52252000       3.08168000       1.88921000       0.06893375       0.23326843       0.34993428      -5.15889649      -7.43827628      10.58147574       3.47807164
C        2.95919000       3.44128000       4.63625000       1.10014774       0.80569875      -0.01189463      -5.92334648      -1.41807846     -10.21190610       5.13918509
C        0.93954000       1.69916000       1.34142000      -0.21483480      -0.27653897      -0.16856309      -4.11292328      -7.17852817      -7.48845924     -12.20617609
C        1.43544000       4.97141000       4.95090000      -0.55115506       0.16301895       0.45148819      -4.48997106      -1.66998779       6.16757365       6.47636390
C        5.02995000       2.44006000       3.02307000      -0.37741480       0.64698195      -1.38780422      -6.21030242     -10.43754253      20.75332539      17.36282969
C        0.91560000       0.44766000       4.06461000      -0.04185457       0.13350039      -0.49652414      -5.68015671      -3.92105744      -7.33131360     -11.43264839
C        4.16581000       1.43873000       2.39392000       0.34538525       0.86436014      -0.37018893      -4.91087195      -7.12197029       0.96887051      -2.69751561
C        3.87665000       3.58049000       3.57388000       0.16686702      -0.22537025      -0.39975742      -5.20757428       2.68138886       3.06574607      -1.69977105
C        1.23964000       3.70395000       5.04965000      -0.16042441      -0.35801019      -0.53750767      -3.27629871      -0.27596221     -15.61614310      -6.13095585
C        2.21111000       0.91577000       3.43120000      -0.72205404      -0.89145872       0.76590295      -5.67645172      -7.86255404      11.89082794      -1.42421593
C        4.10384000       5.05781000       3.64362000       0.44348554       0.39755423       0.47919044      -6.44450540       1.41116157      -4.45714070       0.03471420
C        2.06432000       0.02000000       0.58526000       0.92436224       0.37412632       0.00004358      -5.97171901       8.19638074       8.06720049      -0.71083546
C        4.26171000       0.64796000       4.91079000      -0.17879434      -0.29273504       0.52797049      -6.50650013       1.41119770      -3.91542852      -2.03614759
C        0.95447000       4.36528000       2.58802000      -0.52779916      -0.25895875      -0.69965285      -5.24437225       3.70458600      -9.22180895      -8.60765632
C        5.24245000       1.72322000       4.32161000       0.18911646      -0.83064356      -0.35530217      -5.68460104       6.78246972      -2.02218493       3.72166779
C        3.09419000       1.02028000       0.30139000       0.52150870       0.27996414       0.56557082      -6.51175378     -23.11300187      16.31650930      -5.48713757
27
Lattice="5.407371 0.0 0.0 0.0 5.407371 0.0 0.0 0.0 5.407371" Properties=species:S:1:pos:R:3:momenta:R:3:energies:R:1:forces:R:3 virial="50.03956533484775 -1.3859214744663537 15.835384845385583 -1.3859214744663537 57.7188616270723 13.073109340387933 15.835384845385583 13.073109340387933 43.34004142006139" config_type=Amorphous_Bulk energy=-175.24145180118404 free_energy=-175.24145180118404 stress="-0.2713958121581589 -0.010322930787745113 -0.10574745713683212 -0.010322930787745113 -0.3069234872002209 -0.13544138115167945 -0.10574745713683212 -0.13544138115167945 -0.2245976018890889" pbc="T T T"
C        0.65208543       2.58466511       5.21154823       1.01439461       0.34330542       0.76069465      -6.15343070      -0.53055245       0.99273745       1.58230586
C        1.93607138       1.96722295       1.92638878       0.79706801       0.04278320      -2.57240532      -5.81885937       3.24835731      -1.59172732       1.54219719
C        0.31541241       5.35838146       2.90244103       2.17346002       0.83683212      -0.25179814      -5.56597967      -6.52557630      -3.56502636       3.63009978
C        3.36537563       3.27309242       0.73953653       0.49620447       2.20290690       0.10297932      -5.97733769       2.34799137       3.06074296      -1.99332614
C        2.74719409       1.77413312       4.38066687       1.39652054      -0.30539834      -0.80009531      -5.41639313      -1.81870181       3.38749546      -1.02393500
C        2.44885579       4.70630846       2.03979064      -0.51978163      -0.38479412      -0.93684445      -5.68808694      -4.53219800      -0.82734491      -2.98312490
C        3.21903000       1.98059943       1.21739643      -1.47979130      -2.11388398       0.68792215      -7.12520080      -2.20507330      -2.66908187       1.83699061
C        3.23258735       0.23598603       2.87587104       0.10327434      -0.51643119       0.31138124      -6.32945974      -1.52526978       3.85395510      -1.68611227
C        4.64238147       3.90125915       1.21594866      -2.12687276       1.19643624       1.57038148      -6.86621986      -0.43132969       2.19775716      -0.67584745
C        5.32833105       0.80838901       1.79799597       0.72637874       1.48024412       0.62057935      -6.63199075       3.08151381      -0.60348959      -5.56549385
C        5.09683525       5.20815430       0.78975039      -0.51014643      -1.24064509      -1.07294921      -6.43445837      -2.96271989       0.76043701      -3.68043118
C        0.08773765       3.19393070       2.14636175      -1.39719762      -0.44432897       2.24815458      -6.98532371       1.13231600      -2.49741752       3.44675658
C        2.83655009       3.19118961       4.68596517      -0.18098262      -1.95624492       0.66972898      -7.30655082       2.09412798       0.45028312      -0.94284601
C        0.70701247       2.17345763       1.26597712      -0.91850521       3.69279944       0.13778179      -7.23411708       0.41303280      -0.14512318       1.41555786
C        1.36506613       5.00290879       4.91882994       1.08259907       2.34167427       0.79771227      -5.97749185      -3.32565340      -2.95136120       0.11791087
C        4.68696171       2.28635458       3.22463577      -1.41940854       1.37576286      -0.94974388      -6.62488899       1.46861060      14.04580766       4.07013390
C        0.96968394       0.57246581       3.94913064       0.64572964       2.12601819       1.28974473      -6.27690567      -2.81794903       6.38494763       1.91750910
C        4.13766021       1.45940177       2.30979548       1.83554244      -1.83622891       2.12439079      -6.06677038      -6.44616275      -8.31648939      -5.26062031
C        3.93477699       3.52911777       3.85394186      -0.28520386      -1.65124486       2.01950571      -5.78347875      -1.08315613       2.59650916      -1.05074081
C        1.50558909       3.70340185       4.39688116      -0.40114436      -0.87746819       0.06657845      -7.39336291      -3.19388164      -2.59106735       2.06109941
C        2.03875006       1.21877879       3.20764721       0.44593913      -0.33606350      -3.17296057      -6.85795874       4.99627948       0.81619054       3.57751936
C        4.20706481       5.06583138       3.72518422       1.57078176       1.30008228      -1.16858136      -6.85099554       7.31881787      -8.06974189      -1.44734256
C        2.17826871      -0.07249213       0.53135524      -1.00912505      -2.08503216      -1.13915637      -6.11393468       5.97288124       3.91110855       3.92808562
C        4.53522259       0.39221110       4.98038614       1.50931495      -2.71930271      -0.20947073      -6.89643125      -4.30890319       4.08641980       2.74437233
C        1.10214272       4.06973143       2.91444927      -0.13753595       0.95551741      -1.71895217      -6.92413429       2.53589471      -1.28955769      -5.54550019
C        5.29899650       1.70918623       4.45679395      -2.30149482      -0.59270416       1.26036245      -6.72734662       3.00642972      -6.73022703      -5.49726528
C        3.12757645       1.00216322       0.03856050      -1.11001759      -0.83459135      -0.67494043      -7.21434348       4.09087448      -4.69673629       5.48204748
27
Lattice="5.407371 0.0 0.0 0.0 5.407371 0.0 0.0 0.0 5.407371" Properties=species:S:1:pos:R:3:momenta:R:3:energies:R:1:forces:R:3 virial="50.03956533484775 -1.3859214744663537 15.835384845385583 -1.3859214744663537 57.7188616270723 13.073109340387933 15.835384845385583 13.073109340387933 43.34004142006139" config_type=Amorphous_Bulk energy=-180.08141455555716 free_energy=-180.08141455555716 stress="-0.33312130151803704 -0.009076580049905043 -0.054766598295994756 -0.009076580049905043 -0.23386873466778094 -0.12059473794048686 -0.054766598295994756 -0.12059473794048686 -0.15927026851707388" pbc="T T T"
C        0.52178767       2.47263622       5.24407197       1.03228771       1.03142706      -1.01025813      -5.85180042       4.59905413       3.48195370      -0.69320231
C        2.02837622       1.95350129       2.09331651      -1.36331854       0.09744257       0.80405386      -5.93501286      -0.92082060       0.86170852      -2.13923538
C        0.25394337       5.23658970       2.98409571      -0.99427906       1.80563235       0.55366045      -6.30323909      -1.34448153      -1.64277957      -3.55844224
C        3.39350098       3.29897420       0.72033117       1.01731509       0.04961553       0.30493803      -6.17854949       2.21769200       3.91343871      -3.15520377
C        2.73325089       1.82533746       4.49287978       1.00435749      -1.48837191       1.22759594      -5.34816071       0.50124009       2.45984758       3.44459103
C        2.51793192       4.75601860       1.97179781      -2.36136671       1.06692396      -0.51013259      -6.06558186      -4.64205597      -1.07008593       0.28617662
C        3.19260995       2.05190863       1.24073561      -1.86311008       0.40389456       0.86623571      -7.05057189       0.41115326      -5.47990708       2.27863425
C        3.25078153       0.23826712       2.94286387      -1.13822032       0.10073675       0.63891261      -6.56410690      -1.36961762       3.02157615      -6.17435286
C        4.69849547       3.91021463       1.04444236       0.70995917      -1.00998958      -1.25408244      -6.95799346      -3.09463376       0.26490617      -0.46503031
C        5.35717940       0.72261944       1.75562319      -0.79357786       1.43590788       1.20276144      -6.98696275       0.07432039       0.80964876      -1.66381544
C        4.98779946       5.28047373       0.65718345      -0.18866344      -1.81097418      -0.21388248      -6.43824191       0.84140731      -0.48936498       4.49711657
C        0.08135473       3.20067324       2.09352772       1.62172071      -0.54902743       0.53876519      -6.98540901       2.75885118      -1.64153636       0.16410201
C        2.86221701       3.26980329       4.69682671       0.36030241      -0.17898624      -0.86367270      -7.35076680       2.05813585      -3.56919357      -0.18719015
C        0.74846886       2.09414239       1.38773799       1.07602415      -1.88355168      -0.22861456      -7.26117266      -2.63457102      -3.59131773      -0.33497495
C        1.32509249       4.96924815       4.96647427      -0.02116313       0.12672398       0.28887916      -6.19667927       2.77365625       0.61567858       0.91556156
C        4.65378759       2.47314358       3.17418291      -0.55088428       0.79890596      -1.87865197      -7.32032254      -0.43726151       0.20875063      -0.88322674
C        0.93305557       0.58776137       3.93111190       1.15495126      -1.51869882      -0.31476282      -6.76303264       0.52544970       2.75828250       2.20748088
C        4.09637628       1.42970074       2.20733858      -0.22639447       0.22514041      -0.74510299      -6.25170892      -0.76083135      -0.55920900       3.37533777
C        3.90861496       3.55628285       3.78836956       0.51880145       1.35604783      -0.91508199      -6.26262289      -1.99337579       3.84365302       1.34892224
C        1.50779298       3.64752695       4.43144717       0.10032947      -1.33015436       1.83844909      -7.00071648      -4.64441502      -0.88492410       0.17336315
C        2.14172023       1.23276385       3.42446496       0.61472320      -0.99622837      -1.03996560      -7.28949914      -0.66748514      -1.26585571      -3.85551356
C        4.26309768       4.99230883       3.68614584       0.69423064      -0.88120500      -1.66566962      -7.17812431       3.24593999      -2.61115903       1.20633088
C        2.28522850      -0.02376409       0.59799586      -0.54503364       0.03621482      -0.40237597      -6.74693413      -0.69859727      -1.10921475      -1.07724956
C        4.40560216       0.51889524       4.95421962       0.86255943       1.63795519       2.46887797      -6.96349455      -1.96892394      -2.97072325      -1.19020552
C        1.18882436       3.96256295       2.78350300       0.34540500      -0.51817268       0.44750197      -6.59300502       0.25637821       3.37202855       0.33707598
C        5.21628386       1.62716480       4.28997265      -0.48657442      -0.44676105      -0.35426095      -7.04943238       4.36614829      -0.27749978       3.39461314
C        3.15004589       1.01107482       0.14256984      -0.58038124       2.43955241       0.21588340      -7.18827246       0.54764386       1.55129797       1.74833672
27
Lattice="5.407371 0.0 0.0 0.0 5.407371 0.0 0.0 0.0 5.407371" Properties=species:S:1:pos:R:3:momenta:R:3:energies:R:1:forces:R:3 virial="50.03956533484775 -1.3859214744663537 15.835384845385583 -1.3859214744663537 57.7188616270723 13.073109340387933 15.835384845385583 13.073109340387933 43.34004142006139" config_type=Amorphous_Bulk energy=-181.396449756121 free_energy=-181.396449756121 stress="-0.3096455504857179 0.011212180040968328 -0.04122535337183846 0.011212180040968328 -0.23363995472052965 -0.13674707163385705 -0.04122535337183846 -0.13674707163385705 -0.15791459558989357" pbc="T T T"
C        0.65595316       2.52256075       5.17093349      -0.70296366       0.39131253      -0.71996994      -6.16464530       1.24958538       0.00175074       2.32798081
C        2.08573507       1.96392134       2.07093783      -0.72878314       0.54565293      -1.02042217      -5.72123089      -3.03677844       0.39280572      -1.65982336
C        0.21459354       5.26580737       2.93500011       0.43033024      -1.17424825      -0.62113875      -6.40990957      -0.05312429      -0.55283373       1.11174101
C        3.51174488       3.17904034       0.67742409       0.92501706       1.12446740       0.63297200      -6.38056312      -0.43730696       0.61974823       0.78175975
C        2.60732621       1.84801469       4.62036326      -1.78190155      -1.25363589       0.23198151      -5.57059758       1.23886359       1.58890637      -2.72607845
C        2.29194361       4.75614802       1.93161783       1.09490399      -0.21786642       0.93834262      -6.22573274       1.31759707       1.49577083       1.61898388
C        3.25393344       1.90879946       1.27410803      -0.22143381      -0.53286808      -0.91118688      -7.04542861       1.95665868       2.30657553       1.30156342
C        3.15561822       0.29890849       2.80969672      -0.16398839      -0.78723587       1.65886174      -6.41815021       2.07444590      -1.36720486       1.55960984
C        4.67592179       3.86181414       1.14215667      -1.36068918       0.85815298      -0.49488675      -6.97713038       1.85825929       1.41303059      -0.75415923
C        5.36947533       0.74549873       1.77271533       0.70145397       0.21229078       0.32984081      -6.91841619       0.42021627      -1.00656638      -3.63622367
C        4.98921539       5.19358288       0.73598196       0.48606132      -0.79901870      -0.24670652      -6.45811435      -0.21529487       2.43853022      -1.94798678
C        0.20840622       3.17603445       2.07695413      -0.51427786       0.16209459       1.60234263      -7.05936470      -2.82167005      -1.48996909       2.18220864
C        2.92302223       3.30058875       4.70381536       0.69479951       0.22360861      -0.63155058      -7.30822789      -0.56034082      -3.51082732       1.66147839
C        0.78838090       2.05932194       1.31842032       0.27874382      -0.92829484      -0.50277562      -7.30859699       1.80693778      -0.10521394       0.72033017
C        1.31813180       5.00455323       4.95562636       0.43190354       0.09833755      -0.78513501      -6.17823631      -2.14866791       0.55617284       0.19639492
C        4.71983783       2.50093123       3.20935651      -0.55389598       0.24819798       0.06294329      -7.38576980      -1.05058267       0.85990512       0.18071920
C        0.92024780       0.64200382       3.89535667       0.29645874       0.47359133       0.77702546      -6.78328269       0.38097317      -1.67325452       1.17555654
C        4.18815860       1.45209788       2.30613443       0.18964394       1.11779014      -0.11390250      -6.13218040      -1.85793592      -2.42730264      -1.93772359
C        3.84869676       3.60493288       3.75908850       1.20134490       0.08378507      -1.59453309      -6.43454395       3.73151793      -1.40593944      -2.02270378
C        1.50562295       3.64943770       4.43777690      -1.08016960      -0.09003179       0.97375459      -7.18301873      -1.70076122       0.55231999       1.02789506
C        2.13643047       1.27260298       3.40472221       1.14267277       0.27697701       0.80397673      -7.16987502      -0.73911448      -0.42855449       0.04702415
C        4.22907779       4.94452626       3.61309191       1.10130371      -0.27992774      -0.29785396      -7.24787123      -0.46649647       3.68139976       0.55919676
C        2.15896970       0.01856558       0.60152256      -0.81808727       1.40868701      -0.18440461      -6.62837952      -0.76314534      -2.58632325      -0.36537787
C        4.33333928       0.43407487       4.97413104      -0.48767020      -0.15012254      -0.06463322      -7.01155580       3.11377620      -0.92086894      -0.03179906
C        1.14996707       4.08334930       2.78398107       1.21301980      -0.55249254      -0.46412330      -6.99822642      -0.14319555      -0.33470145      -1.76289027
C        5.34925896       1.64346263       4.32739856      -1.31638088       0.00571195       0.59529961      -6.94208871      -2.63437523       0.30052132       0.59149913
C        3.11421100       0.96525029       0.19491812      -0.45741577      -0.46491516       0.04588191      -7.33531267      -0.52004102       1.60212279      -0.19917560
27
Lattice="5.407371 0.0 0.0 0.0 5.407371 0.0 0.0 0.0 5.407371" Properties=species:S:1:pos:R:3:momenta:R:3:energies:R:1:forces:R:3 virial="50.03956533484775 -1.3859214744663537 15.835384845385583 -1.3859214744663537 57.7188616270723 13.073109340387933 15.835384845385583 13.073109340387933 43.34004142006139" config_type=Amorphous_Bulk energy=-181.86092870776156 free_energy=-181.86092870776156 stress="-0.341699343028329 0.0015348283944035548 -0.030830395886442576 0.0015348283944035548 -0.21285061135090957 -0.14704107592336457 -0.030830395886442576 -0.14704107592336457 -0.15786691582183063" pbc="T T T"
C        0.70878804       2.49731949       5.28673712      -0.17801414       0.32163269      -0.36691509      -6.01865834      -1.44490192       0.09926342      -1.53325813
C        2.03011085       1.92040259       2.06001468      -1.40921768      -0.80825827      -0.52604944      -5.81014072       0.72047520       0.60728606       0.46327354
C        0.22234317       5.28179102       2.93678468      -0.64151422      -0.02555272       0.33378512      -6.47078200      -1.32346272       1.01515888       1.38315510
C        3.46583610       3.28828880       0.66901990       0.20514298       0.73966972      -0.31106639      -6.25196938      -1.96496877      -1.36595839      -0.62026846
C        2.78177331       1.85523221       4.50339744       0.48301612       0.11107329       0.26510787      -5.47787937      -2.09754570      -4.80288676      -1.23764538
C        2.30781347       4.80990499       1.96726105       0.42680205       0.02096769       0.31357098      -6.28936971      -1.05251612      -1.88659738       0.83410053
C        3.23556489       1.99125353       1.29970749       0.03338306       0.20831696       1.01501654      -7.10176131      -1.40296784      -0.68022889      -2.17943278
C        3.16632345       0.27540648       2.87002008      -1.67057906       0.23950423      -0.97476108      -6.63156765       1.14927473       0.01790979      -0.19932366
C        4.69592633       3.88442585       1.01213088      -0.27807729       0.54187532       0.51001221      -6.83901097       2.57525159       0.41999873       2.49800077
C        5.36001125       0.74528539       1.73112920      -0.08170145       0.10437140       0.14829581      -7.16033069      -0.38419213      -0.77145056      -0.61713115
C        5.00581112       5.24473974       0.67261603      -0.88654003      -0.25248683      -0.30397404      -6.40566657       0.36841677       0.22024145       1.11075088
C        0.14501658       3.16787676       2.14352720       0.64196731       0.08194279       1.19170789      -7.13873707      -0.02391889      -0.88349271      -3.64386754
C        2.86338881       3.21920910       4.63201282      -0.43222038      -0.10032045      -0.19957528      -7.19635962       1.61184802       2.82927333       4.13852157
C        0.80378666       2.03613517       1.37925986      -0.51359596       0.71496170       0.11710842      -7.47342279      -2.22397873       1.13067047       0.18383395
C        1.33354880       4.96616880       4.94067541       1.08994148       0.38916784      -0.44226020      -6.12428726      -1.28750944      -1.03321790       0.05081962
C        4.69581030       2.48897080       3.18088371      -0.74000835       0.52206137      -0.43211003      -7.37639125      -1.48727790       0.22129109       2.15146406
C        0.89666242       0.64744035       3.95475672       0.22754720      -0.26088431       1.29553277      -6.90799501       1.32053049      -1.78023903      -0.84580982
C        4.09747254       1.38371048       2.26316434       0.73095199      -0.87756223       0.31098713      -6.30298678       1.42548637       0.86360383       1.33607800
C        3.85753817       3.61447301       3.77279779       1.22896209      -0.54542401       0.40559279      -6.22121947       2.96241257      -0.52952163      -2.46543596
C        1.46541944       3.60113765       4.42514827      -0.03875039      -0.97141920      -1.54732570      -7.07574886      -0.43464735       2.37244339       0.82233196
C        2.10090926       1.24356203       3.41013719       0.06614776      -0.42704257       0.65234189      -7.22233108       1.58240401       0.77965828       0.05315818
C        4.27755233       5.02014846       3.69622318       0.26740709       0.85672590      -0.50355640      -7.35509719      -1.99256775      -0.57204511      -1.30979591
C        2.22460459      -0.10576594       0.54745483       0.51366889      -0.29381242      -1.01826959      -6.75993515       2.33190911       3.26237933       1.65009663
C        4.42014069       0.47542837       4.97075464       0.44463341       0.71776597       0.27008109      -6.98428312      -0.86462563       0.64149802      -0.74109105
C        1.07953155       4.08664831       2.78501003      -0.70282141      -0.25426749      -0.29938952      -6.91163310       1.78177756      -0.61545359      -0.40824928
C        5.33165422       1.67364341       4.40042210       0.83941478      -0.36302139       1.19101920      -6.99789686      -1.17790989      -0.53530705      -0.19776713
C        3.12988167       0.98299314       0.19218335       0.37405415      -0.38998496      -1.09490693      -7.35546740       1.33320435       0.97572292      -0.67650853
27
Lattice="5.407371 0.0 0.0 0.0 5.407371 0.0 0.0 0.0 5.407371" Properties=species:S:1:pos:R:3:momenta:R:3:energies:R:1:forces:R:3 virial="50.03956533484775 -1.3859214744663537 15.835384845385583 -1.3859214744663537 57.7188616270723 13.073109340387933 15.835384845385583 13.073109340387933 43.34004142006139" config_type=Amorphous_Bulk energy=-181.70851127029547 free_energy=-181.70851127029547 stress="-0.331143134585122 0.0023210880506047615 -0.02546772287423623 0.0023210880506047615 -0.19538681776293146 -0.1261303809389696 -0.02546772287423623 -0.1261303809389696 -0.16927216218287983" pbc="T T T"
C        0.58673568       2.54454304       5.24632062       0.48452823       0.36612598      -0.12566199      -6.24213970       0.53020431      -1.45366233      -0.19976153
C        2.01291415       1.92879958       1.96582523       0.30030200       0.31371667       0.35765220      -5.77789128      -0.98256376      -0.99346977       3.38631376
C        0.24577684       5.26332032       2.96815190      -0.28316373      -0.00905378       0.16068798      -6.48019728       0.99392948       1.26865727       0.19905770
C        3.38491940       3.31773181       0.70025288      -0.37964032       0.27993350       0.57080514      -6.22139811       0.36768407      -0.32867322      -0.95884401
C        2.63854547       1.81496502       4.52385806       0.25841686       0.12326315      -0.18265414      -5.48961063       2.98994207       1.37122595       2.18937775
C        2.39300539       4.75042188       1.95338005       0.27024320      -0.51065903      -0.67367767      -6.21429706      -0.30575195       0.22039940       0.80488589
C        3.24301600       1.99571529       1.25549297      -1.05114893      -0.41644091       0.31041424      -7.10898245      -1.32550161      -0.41506940      -1.99076621
C        3.29034423       0.24491794       2.82873351       0.32338937       0.69096121      -0.25791852      -6.62181495      -1.95417704       0.97126858       0.61757186
C        4.56988170       3.97284819       1.13281843      -0.01516191       0.08535253      -0.00163025      -6.83974388       2.74046706      -3.59390153       1.60691925
C        5.37256608       0.79027212       1.76013392       0.43601288      -0.34164790       0.14067411      -6.88470407      -1.12291193      -3.28789411      -3.41234911
C        4.95620251       5.23034579       0.70420582      -0.60049544       0.63301883       0.06287365      -6.27850117       0.77435274       3.79536058       2.85791135
C        0.12658877       3.14625265       2.06609733       0.11538466      -0.76871801       1.66548893      -7.02719048      -1.43065433       1.70838623       1.72419500
C        2.88875797       3.24341247       4.67007088      -0.40965020      -0.27379263      -0.87380856      -7.48064872      -0.65081720      -0.33475981       0.73674693
C        0.70220149       2.06190876       1.30139740       1.06660060      -0.91266930       0.03700357      -7.50219303       3.89649993       0.99939285       0.34399711
C        1.30632920       5.00075430       5.00976766       0.11543244       0.68519645      -0.75518963      -6.21373655       2.33171723      -0.54377433      -0.07584280
C        4.71918754       2.45562624       3.22755411      -0.66708734       0.27047525      -0.08654635      -7.24247014      -0.40900911      -0.00250737      -1.33210757
C        0.98008566       0.62232159       3.97660045       0.44434977      -0.43763482      -1.36827065      -6.85040652      -1.81686694      -2.19726625      -2.32169186