27
Lattice="5.407371 0.0 0.0 0.0 5.407371 0.0 0.0 0.0 5.407371" Properties=species:S:1:pos:R:3:momenta:R:3:energies:R:1:forces:R:3 virial="50.03956533484775 -1.3859214744663537 15.835384845385583 -1.3859214744663537 57.7188616270723 13.073109340387933 15.835384845385583 13.073109340387933 43.34004142006139" config_type=Amorphous_Bulk energy=-148.98051490516312 free_energy=-148.98051490516312 stress="-0.6244686165360716 0.08458033284837063 -0.19136271700806717 0.08458033284837063 -0.8318895518448683 -0.29268940476472105 -0.19136271700806717 -0.29268940476472105 -0.601744969481613" pbc="T T T"
C        1.21052000       2.02569000       5.31804000       0.13705165       0.31144764       1.64053716      -5.34177477     -10.91006107      16.61950861      10.34515667
C        1.66093000       2.17594000       2.38906000       0.90243910      -1.30898988       0.03368993      -2.68632232      22.18243814      -0.68330198       7.80681021
C        0.01590000       5.25937000       3.11729000       0.23565738      -0.25868182      -0.26143084      -6.06664029       2.58261049       5.44700917      -6.34636259
C        3.82024000       3.16460000       0.53518000       0.74266044      -0.41874091       0.12256712      -5.92051358      -7.36431904       1.97377928      -4.33484491
C        2.37851000       1.89385000       4.62271000      -0.20360495      -0.02898618       0.46278111      -5.08754497      10.35915789      -3.21573920       0.37003528
C        2.21330000       4.78296000       1.74481000       0.72663467      -0.18756528       0.47647685      -5.99948553      -0.03654731      -0.02495492       9.81174468
C        3.24993000       2.07202000       1.45622000       0.58643471       1.71604653       0.18735191      -6.31983708      -3.78684347       1.13593560       1.53297220
C        3.13398000       0.16564000       2.71302000      -0.78525538       0.48342558       0.35303456      -6.11955488       2.45305408       0.66854927       0.43311149
C        4.96227000       3.96407000       0.70854000      -0.46271440      -0.50615493      -0.07384039      -6.11621810       2.73518778      -4.17895729       7.26692556
C        5.20304000       0.85066000       1.72184000       0.67459848      -0.18603397      -0.06225179      -6.18930229      10.64078930     -24.99238133     -11.47273781
C        4.83817000       5.38629000       0.67172000       0.00502610      -0.78210349      -1.34334010      -6.12307640      17.39430770     -10.29659117       0.80741674
C        0.52252000       3.08168000       1.88921000       0.06092510       0.41585708       0.44581121      -5.15889649      -7.43827628      10.58147574       3.47807164
C        2.95919000       3.44128000       4.63625000       0.01590458      -0.28687319       0.90803303      -5.92334648      -1.41807846     -10.21190610       5.13918509
C        0.93954000       1.69916000       1.34142000      -0.10627448       0.97825636      -0.65259155      -4.11292328      -7.17852817      -7.48845924     -12.20617609
C        1.43544000       4.97141000       4.95090000      -1.25903150      -0.37627968      -0.39654274      -4.48997106      -1.66998779       6.16757365       6.47636390
C        5.02995000       2.44006000       3.02307000       0.95229760      -0.19487509      -0.29752115      -6.21030242     -10.43754253      20.75332539      17.36282969
C        0.91560000       0.44766000       4.06461000      -0.04857473      -1.02855347      -0.67446327      -5.68015671      -3.92105744      -7.33131360     -11.43264839
C        4.16581000       1.43873000       2.39392000      -0.72439791       0.34779011      -0.57970850      -4.91087195      -7.12197029       0.96887051      -2.69751561
C        3.87665000       3.58049000       3.57388000      -0.45988678      -0.17691998       0.06590438      -5.20757428       2.68138886       3.06574607      -1.69977105
C        1.23964000       3.70395000       5.04965000      -0.25246610      -0.26620891      -0.23959220      -3.27629871      -0.27596221     -15.61614310      -6.13095585
C        2.21111000       0.91577000       3.43120000      -0.91348701      -0.74631324       0.01968491      -5.67645172      -7.86255404      11.89082794      -1.42421593
C        4.10384000       5.05781000       3.64362000      -0.03939831       0.72435600      -0.06510812      -6.44450540       1.41116157      -4.45714070       0.03471420
C        2.06432000       0.02000000       0.58526000      -0.35534358       0.73478992      -0.16087583      -5.97171901       8.19638074       8.06720049      -0.71083546
C        4.26171000       0.64796000       4.91079000       0.20270146      -0.04828672       0.96975162      -6.50650013       1.41119770      -3.91542852      -2.03614759
C        0.95447000       4.36528000       2.58802000       0.39760954       0.01488454       0.24239645      -5.24437225       3.70458600      -9.22180895      -8.60765632
C        5.24245000       1.72322000       4.32161000       0.52195777       1.04230909      -0.14923408      -5.68460104       6.78246972      -2.02218493       3.72166779
C        3.09419000       1.02028000       0.30139000      -0.55146347       0.03240389      -0.97151966      -6.51175378     -23.11300187      16.31650930      -5.48713757
27
Lattice="5.407371 0.0 0.0 0.0 5.407371 0.0 0.0 0.0 5.407371" Properties=species:S:1:pos:R:3:momenta:R:3:energies:R:1:forces:R:3 virial="50.03956533484775 -1.3859214744663537 15.835384845385583 -1.3859214744663537 57.7188616270723 13.073109340387933 15.835384845385583 13.073109340387933 43.34004142006139" config_type=Amorphous_Bulk energy=-177.0230374097564 free_energy=-177.0230374097564 stress="-0.3313012856106428 0.027564376286205998 -0.008943342087549343 0.027564376286205998 -0.4152784760112542 0.04183762239972286 -0.008943342087549343 0.04183762239972286 -0.23206748130831434" pbc="T T T"
C        1.04424374       2.25830476       5.34417585       0.09567751       2.42563610       3.01163050      -5.45883629      -4.26513819      -7.51019379       1.37166400
C        2.01767863       1.96612828       1.99583299      -1.80727090       1.05707960      -0.65430842      -5.11812276      -0.34293992      -2.22444035      10.84545816
C        0.25768786       5.30329740       2.90418505      -1.41410987       0.85287801       1.78340535      -6.10219628      -4.41100428      -1.10712719      -0.51094240
C        3.42618277       3.32345641       0.72634640       1.04769737       0.49956626      -2.26234484      -6.42568799       0.54927293       1.33133705      -0.52874858
C        2.41969219       1.91036777       4.61288612       1.31797948       1.19207105      -0.37910717      -6.05977423       0.45249415       4.49711990       6.83217002
C        2.24364196       4.76730052       1.97479901       3.00360981      -2.52438522       0.87038475      -6.21017002       1.64579965       1.03952626       1.57254673
C        3.09143109       2.05864957       1.22572173       1.64168383       0.82164275      -2.79520892      -6.77293308       9.08172299      -3.70694977      -1.11645017
C        3.26883713       0.25018893       2.84839234      -1.16975953      -0.13262670      -0.07993199      -6.41754480      -5.09016336       1.68428805      -3.58721008
C        4.71526516       3.87489224       1.20939124      -2.61939714      -0.43282041       0.28914224      -6.81251973       0.02857401      -0.12002239      -3.44844502
C        5.42264507       0.77509984       1.69563113       0.26228905       0.32659118      -1.30170507      -6.95020734      -2.93247081      -3.79244403      -0.46609115
C        5.28412882       5.09971302       0.61861358      -2.55195288      -1.02776327       1.41381055      -7.14743543      -7.81683752       2.14324489      -1.96971616
C        0.17745704       3.05696134       2.08126921      -1.02772373       0.16756706       2.62124711      -7.25478267      -1.79445722       2.04414986       3.93932314
C        2.93918366       3.40802915       4.70612750       0.86985087       2.63351648       0.49086895      -7.21556462      -2.60077174      -3.79990622      -0.28253194
C        0.80688680       1.92818463       1.43966298       0.33981673       1.15412150       1.20178964      -7.33873103      -0.55896011       4.53892111      -6.84052729
C        0.98612471       4.98645888       5.12721971      -1.43591097       0.92998311      -0.53319991      -6.66323665       5.99983196       3.82400614       2.43069543
C        4.70113032       2.42825270       3.18919019      -0.59473774       1.63340295       0.02784168      -7.34045471       1.50842137       5.19099411       1.80279762
C        0.96636324       0.55467058       3.91470324      -0.42246863      -2.29772687      -0.96230712      -5.95318450      -3.88366648      16.33599831      -0.76129148
C        4.07754519       1.42669695       2.24828447       0.59574406       2.05674752       2.70356845      -6.37200331      -1.09749509      -1.64773966      -3.83253741
C        3.97001461       3.63186314       3.81400225       2.49562453      -0.76010010       4.33810486      -6.31839663      -2.00800106      -2.01938457      -0.95895696
C        1.47711074       3.97299762       4.27966572       1.25746574      -1.70270531      -0.82072335      -5.45862084       6.86244119     -11.62258639      -1.77313572
C        2.24097242       1.28709105       3.40157297       0.77545662      -2.44599135      -3.15095016      -6.58082723      -3.33304356      -4.07687912      -5.70378995
C        4.20291610       4.99053155       3.57376661       0.47253721       1.22844265      -0.23412505      -7.03741871       9.28964725      -0.60658184       2.65918851
C        2.07749923      -0.05694730       0.62687455      -2.31401590      -2.02724816       1.33066016      -6.48676012       1.45745473      -2.84756555      -0.81143729
C        4.39980278       0.43605424       4.86942935      -0.11137946      -2.30820447      -2.53689745      -6.67171962      -0.63519326      -0.12344688       3.96774449
C        1.06886109       4.07575856       2.79834224       1.23951603       1.90669309      -0.81010481      -7.25987379       2.70827227      -0.51380767      -3.68640749
C        5.38441319       1.69033040       4.31745745       1.36474875       0.36306501      -2.62237885      -6.49130190      -1.64951425      -1.96103060       2.05192000
C        3.03550448       0.89149774       0.15968615      -1.31097084      -3.58943244      -0.93916111      -7.10473310       2.83572434       5.05052033      -1.19528900
27
Lattice="5.407371 0.0 0.0 0.0 5.407371 0.0 0.0 0.0 5.407371" Properties=species:S:1:pos:R:3:momenta:R:3:energies:R:1:forces:R:3 virial="50.03956533484775 -1.3859214744663537 15.835384845385583 -1.3859214744663537 57.7188616270723 13.073109340387933 15.835384845385583 13.073109340387933 43.34004142006139" config_type=Amorphous_Bulk energy=-178.29697352638408 free_energy=-178.29697352638408 stress="-0.3388102265171663 -0.01980801084703765 -0.0553108946430723 -0.01980801084703765 -0.1996167414816175 -0.11924000191898651 -0.0553108946430723 -0.11924000191898651 -0.25084298415889617" pbc="T T T"
C        0.93309933       2.03110491       5.36936087      -1.13897014      -2.59642869      -0.30353750      -5.78599009       2.33815793       1.92811934      -0.41018920
C        1.96126681       1.97645933       2.07894611       1.31273278       1.68577186       0.37821618      -5.69149158       2.80645452      -0.55365523       1.40431950
C        0.20050888       5.23627788       2.93151100      -1.69248907       0.57921696      -0.48266275      -6.29223901      -2.19497172      -0.32788257      -5.19479765
C        3.50243326       3.28918030       0.61285244      -1.29127657       0.07496782       2.11423434      -6.31509758      -4.30680206      -1.72783269       0.64252478
C        2.35640136       1.89346467       4.64350428      -1.10611186      -2.28146891       0.03901828      -6.31699176       0.91889141       4.89608908      10.10006370
C        2.33301609       4.74738001       2.06952965      -0.19640138       0.61419689       0.79490308      -6.20345001       2.13302035       2.42038663      -3.41368027
C        3.10058151       1.99462642       1.19687351       1.39811531       1.16857516      -3.67083188      -7.05983885       6.31563811       2.53888647       3.44422525
C        3.24431595       0.35844985       2.79229663      -0.49184488       1.66520637       1.09644678      -6.49885505      -2.21212940       0.24517456       3.42173985
C        4.71875405       3.87030197       1.03587805       0.87385015      -1.72568143      -2.86285230      -6.91406714      -1.17646863       1.56569443      -1.54782107
C        5.26628386       0.69341590       1.68732909       0.82208334       0.44772136      -0.01759537      -6.77039093       4.36975274       0.59881713       1.40791754
C        5.15240150       5.19550084       0.54783590      -0.21439487      -0.80721150       0.22636807      -7.38466559       2.50206763      -1.12594166      -2.66902565
C        0.11225167       3.15335328       1.98203898      -0.13152618       0.23049275       0.76316503      -6.98782398       1.69676540      -0.16075120       4.29559110
C        2.93059769       3.29986215       4.63270488       0.20338319       0.63860451      -1.33889581      -7.48873311      -2.36624242      -0.43123449       1.15992016
C        0.73506377       1.99568571       1.42978661       1.73109464       0.17495554       0.44860844      -7.39155603      -0.58241062      -3.55734883      -1.84315600
C        1.22726715       5.00308150       5.24617424      -1.64211945       0.20922178       2.38240696      -6.74437721      -7.78011121       0.74277726      -2.49374357
C        4.77159215       2.50655790       3.27720873      -0.14780355      -1.39868728      -1.11331337      -7.02460966      -1.70407988       1.74377633      -1.73571931
C        0.87613257       0.52614405       3.86864591       2.37413303      -0.71375409      -0.56250462      -5.82044166       4.67313442       5.48491847       6.75713124
C        4.11544996       1.50408240       2.17778050       0.07022444      -0.44600010      -2.69005682      -6.06490149      -1.96593683      -2.08860018       0.88709945
C        3.93711555       3.61576597       3.76214122      -0.31119043      -0.84045292       1.78596611      -6.30219462       0.64647063       1.76100543      -0.52681895
C        1.63292547       3.98429772       4.30565822      -1.35892242      -1.39952280      -0.61533674      -5.58311419       0.30173422      -3.17182661      -1.95883774
C        2.17584029       1.29923418       3.48483498       0.25101496       1.24948581       0.75228445      -6.33844566      -5.41809826      -6.52159628     -11.47168075
C        4.24695740       5.11544692       3.58523744      -0.26358120      -0.67722582       1.28169494      -7.22700230       1.24735726      -5.31117070       2.67742241
C        2.27638007      -0.13519218       0.67225870      -1.02465955       3.09413904       0.86960211      -6.34475593       0.73413698      -0.27805384      -0.24058122
C        4.34493916       0.57988382       4.91677170       0.58596613       2.02183294      -1.00214148      -6.92548665       0.09096200      -6.96614403       2.26119072
C        1.13195921       4.04495124       2.75422616      -0.24253983      -1.00823931       0.19068931      -7.11836458       0.67178042       2.59344683       0.62969488
C        5.31670813       1.57543754       4.48449538      -0.10907082      -0.20163474       1.19501736      -6.53358196      -0.69943886       2.80503178      -5.79220412
C        3.10297715       0.94107570       0.15734880       1.74030420       0.24191879       0.34110722      -7.16850693      -1.03963410       2.89791456       0.20941492
27
Lattice="5.407371 0.0 0.0 0.0 5.407371 0.0 0.0 0.0 5.407371" Properties=species:S:1:pos:R:3:momenta:R:3:energies:R:1:forces:R:3 virial="50.03956533484775 -1.3859214744663537 15.835384845385583 -1.3859214744663537 57.7188616270723 13.073109340387933 15.835384845385583 13.073109340387933 43.34004142006139" config_type=Amorphous_Bulk energy=-178.09019952259402 free_energy=-178.09019952259402 stress="-0.38467358485592845 -0.055518454446391904 -0.06708598254914247 -0.055518454446391904 -0.19742203016868048 0.015815947965542993 -0.06708598254914247 0.015815947965542993 -0.19893360832381607" pbc="T T T"
C        0.86156041       2.28194986       5.34188747      -0.73875524      -0.09745947      -0.06009060      -5.64688650       2.41928000      -1.78627680       2.26511564
C        1.97795680       2.05239628       2.06812452      -0.51949437      -1.10651499      -1.76855530      -5.63397365       5.48153658      -3.43334747       7.38277191
C        0.20202598       5.27638373       2.83913438       1.84738052       2.79072225       0.96051804      -6.34786293       1.72491380      -1.07933683       3.02613155
C        3.50712015       3.26446847       0.67672078       0.27255928      -2.09644134       0.64875558      -6.25089838      -1.30277871      -0.03645674      -2.64880228
C        2.26978698       2.01336572       4.70193112      -0.68063780       0.04679477       1.26169578      -6.51807264       5.02870177       0.93167359       4.57682457
C        2.40517862       4.73429287       1.90902383       0.19645586      -0.19365241      -0.55482771      -6.14688298      -0.38168752      -1.33842304       6.98939160
C        3.25709947       2.02734934       1.29462182      -0.32411820      -2.35451886       0.73332104      -7.07873815      -4.07580049      -2.32930003       0.10158681
C        3.21904869       0.30007126       2.85441921      -0.76376217       0.33723364       0.43280227      -6.70220790      -0.66771003      -0.44580287      -0.87815236
C        4.76443957       3.75099012       0.95367310      -0.29855282       1.21513808       0.72173356      -6.67289434       1.19638920       3.86092295       1.96407821
C        5.32414285       0.74698734       1.73123577      -0.43664502       2.54025329      -1.90269601      -6.60398211       3.38846058      -3.75979416      -6.03428106
C        5.22221293       5.04794529       0.45380129       0.91803852      -0.93233815       3.04269203      -7.34253324      -0.51735394       1.31432211       3.18230220
C        0.06705154       3.16041428       2.06675208      -0.51428891      -0.93992385      -0.48672004      -6.71061722       4.52887866      -0.63380879       2.17183268
C        2.91784687       3.33556871       4.67476821       1.08323793      -1.36151282      -0.20200525      -7.30130007      -1.58701611       0.54175469       1.64354611
C        0.74689435       1.99597465       1.51565642      -1.72098241       2.30934846      -2.16294088      -7.13027458      -2.34278292       1.14047162      -9.86276920
C        1.12740555       5.02592303       5.20295328      -0.75880991      -0.88391946      -1.52566183      -7.09304213      -3.02758998      -0.23122063      -2.66865912
C        4.68777441       2.44825789       3.27646203       2.12146720       1.80591022      -0.86086294      -7.19209926       0.58716524       3.63557086      -1.87906042
C        0.90552667       0.67789043       3.84382486       0.97995469      -1.57670048      -0.99879521      -5.93197035      -5.46092988      -6.66611392       1.91017156
C        4.18164720       1.37610788       2.25776526       0.28709774       1.13892832      -1.00957282      -6.22545330      -5.67569909       2.74572411       1.18604676
C        3.93841838       3.59783721       3.77501098       0.39182221      -0.52374028       0.55034453      -6.29969595      -1.56285379      -0.40335877      -0.40712178
C        1.54840070       3.95944006       4.26082328       1.55846788      -0.85039764       0.75471511      -5.56575302       3.23472184      -0.84123677      -0.73068231
C        2.10532471       1.28589521       3.40497862       0.56024921       0.51700926       2.42111713      -6.82875400       3.51692186       1.81503571      -2.08819604
C        4.29320643       5.01404828       3.59792888       0.06100426      -0.35404299      -2.25252789      -7.29421245      -0.35522330      -3.41350130      -0.12466576
C        2.14709269      -0.10594865       0.71584381      -0.49201351      -3.66460985       1.01731216      -6.29430587       4.84700246       5.21504603      -5.86556248
C        4.35112743       0.30209802       4.92332573       0.30972469       2.15588190       1.49508242      -6.64358706      -0.00506697       6.86818827       1.18531162
C        1.28459411       4.11589001       2.68376175       0.48670871      -0.48313449       1.20148485      -7.07362347      -5.32808584       0.18192256       1.47393695
C        5.30731313       1.70141038       4.40516749      -1.53057969       1.53777824      -1.74402213      -6.49541310      -2.52658266      -3.48473339      -0.48986028
C        3.08302337       0.90882234       0.27363403      -2.29552864       1.02390867       0.28770409      -7.06516486      -1.13681074       1.63207900      -5.38123510
27
Lattice="5.407371 0.0 0.0 0.0 5.407371 0.0 0.0 0.0 5.407371" Properties=species:S:1:pos:R:3:momenta:R:3:energies:R:1:forces:R:3 virial="50.03956533484775 -1.3859214744663537 15.835384845385583 -1.3859214744663537 57.7188616270723 13.073109340387933 15.835384845385583 13.073109340387933 43.34004142006139" config_type=Amorphous_Bulk energy=-176.71319521511768 free_energy=-176.71319521511768 stress="-0.3253513696085375 -0.01419912800099547 -0.060701139554375116 -0.01419912800099547 -0.2511272450480653 -0.041348855629748806 -0.060701139554375116 -0.041348855629748806 -0.2043675847410197" pbc="T T T"
C        0.97841964       2.02663600       5.30141685      -0.10327133      -2.46135377       0.03978647      -5.75128980       1.16454255       6.05635713       1.39270849
C        2.07778713       1.99136256       2.07807344      -0.09083876      -1.86414427       2.31933282      -5.73303098      -1.52828883      -2.87633867       2.22034654
C        0.12512845       5.32408736       2.87450737      -0.52129854      -1.09975550       2.11908272      -5.81234043       0.33316443      -5.57850652      -2.99364819
C        3.33633063       3.49435370       0.71778050       1.08855800       1.11133235       2.05857797      -5.83428399       1.49402854      -4.69251566       4.51845807
C        2.32011608       1.93090845       4.59487667      -0.39139779       0.20903971       2.91674047      -6.51778192      -0.08553468      -4.40310123       3.28140482
C        2.33432542       4.83296155       1.97463663      -1.84924223      -0.07124968      -0.62650630      -6.30653682       4.10060350       1.02551557       1.67770706
C        3.27066494       2.12110978       1.32578636      -1.16291071       0.52917172       1.79822945      -6.63504853      -3.80049794      -1.04775382      -5.76716123
C        3.31476984       0.18837475       2.86202341      -1.53255555      -0.98716620      -0.76954473      -6.52155650      -3.87741711       5.33571608      -2.28886296
C        4.62929056       3.99232738       1.19048873      -1.59856528       0.41020406      -1.45357725      -6.29697499       2.82881930      -3.56975806      -1.34456850
C        5.32359939       0.77178082       1.60265669      -1.37242176      -0.77760580       0.39274841      -6.65172366       3.62725397      -1.55937192       1.14620529
C        5.22756732       5.07322233       0.55073032       0.59889864      -0.28202756      -1.71120882      -7.15766848       0.15703803       7.46395807      -1.98053522
C        0.21104669       3.09252496       2.11342226       2.09764224      -2.90496767      -1.32338750      -6.97777158      -3.77745340       2.20788942      -0.42179163
C        2.80097482       3.25011006       4.79202303      -0.29199102      -2.04673299      -0.61432404      -7.15056822      -0.38259166       2.98739165      -4.84751707
C        0.86925778       1.99674643       1.39196796      -0.84426642      -0.70510739      -0.17330678      -7.53268063      -4.17231560      -1.73714135      -3.99800005
C        1.11225403       5.00796727       5.09385712       1.22398628      -0.49046683      -1.32891211      -7.15234739       0.09167287       4.58238028       3.78805125
C        4.67029639       2.35905126       3.24605258      -0.35756394       1.68711539      -3.47083940      -7.24564924      -0.50912508       5.88113672      -0.84080722
C        0.92069106       0.56505452       3.80462364       2.09749599      -0.16216613       0.89945657      -5.68035866      -3.15064261      -1.51769925       3.22154270
C        4.11774071       1.37730852       2.12642441       1.46557813      -2.23244175       2.44969421      -6.07358972       0.42773412      -0.45605556       7.35366973
C        3.87289766       3.48053131       3.91649557      -0.11746669      -0.32680723       0.20549884      -6.26348754       1.71996558       4.82860461      -2.93719749
C        1.50124982       3.92029935       4.35199511      -0.49523459       1.13866372       0.77847251      -5.41117778       3.39279904      -3.41586235      -4.88923338
C        2.08289504       1.14672527       3.31420211       1.78974056       4.11544034      -1.25817470      -6.83261081       8.56903024       4.24418660      -0.03175680
C        4.22866730       5.00320174       3.76702497       0.37854606       3.73531323      -1.24245052      -7.15391452       1.85633405      -4.91799809      -2.60226676
C        2.28222199      -0.04139911       0.59800440       0.74636964       1.41164956       1.44624733      -6.47072120      -3.42336591       0.08506986      -2.52978131
C        4.41590974       0.51100708       4.97142519       0.74848387       0.08683314      -0.56012737      -6.87530202      -1.63248630       0.23777847      -0.84596506
C        1.25603436       4.09443005       2.71269761      -2.17574848      -0.68653989       0.55709703      -6.99938211      -5.29697968       0.62281197       2.21946196
C        5.25075394       1.64873629       4.32869711       0.65833874       1.74622676      -1.47746642      -6.47947069       3.60880487      -5.77739938       3.42502680
C        3.17232927       1.13641034       0.10133997       0.01113495       0.91754268      -1.97113886      -7.19592704      -1.73509229      -4.00929460       4.07451016
27
Lattice="5.407371 0.0 0.0 0.0 5.407371 0.0 0.0 0.0 5.407371" Properties=species:S:1:pos:R:3:momenta:R:3:energies:R:1:forces:R:3 virial="50.03956533484775 -1.3859214744663537 15.835384845385583 -1.3859214744663537 57.7188616270723 13.073109340387933 15.835384845385583 13.073109340387933 43.34004142006139" config_type=Amorphous_Bulk energy=-174.75611484781885 free_energy=-174.75611484781885 stress="-0.3863283329500357 -0.02397753612667882 -0.04225718943087306 -0.02397753612667882 -0.2593947198718562 0.07136724364473808 -0.04225718943087306 0.07136724364473808 -0.1822728086793206" pbc="T T T"
C        0.95897025       2.34671871       5.38283951       0.30664575       1.76142219       0.73274114      -5.42900028      -3.52805541      -9.98957877       4.31525939
C        2.00958644       1.86734938       2.13911593      -1.81021899      -1.02532122      -0.13342091      -5.76044592       1.87472397       1.83609063       0.79414140
C        0.10238140       5.17782407       3.08616123      -0.12963003       1.14911061      -1.51354370      -5.96439830       6.66610531       0.40622244      -5.05363956
C        3.57305963       3.23843746       0.60142596      -0.54953931       0.41665444       2.56757814      -6.17047034      -1.85773399       1.83921881      -1.39222158
C        2.34510168       1.92870517       4.69337428       1.35063551      -1.27126448      -2.69172115      -6.57528743      -1.39231274      -1.82157781      -0.53262365
C        2.42166857       4.71943674       1.90350435      -2.01048214      -3.40004541       1.27089701      -6.35969000      -3.03552508      -1.63590628      -2.27596270
C        3.31597571       2.00022161       1.40788351       1.59926462      -2.03354143      -0.56850322      -7.03342944      -2.85748965      -3.10247098      -3.68233292
C        3.20370977       0.17379928       2.73596694      -1.84034565       0.61317738      -0.23755336      -6.22465211      -1.75650853       5.99558966       4.32371847
C        4.82275071       3.91315481       0.88604490       0.69906698       3.15010079       1.58014154      -6.38980569       2.65332461      -1.95031659       6.05647745
C        5.40757211       0.72947430       1.62825729       1.21953940       1.39359712       2.12176395      -6.61111260       1.95808129      -2.30507888       5.29495608
C        5.31579492       5.24505410       0.49840453      -0.32986366       3.16720014      -0.70711860      -7.39217281      -7.09191595      -2.66031922      -3.29021205
C        0.17159918       3.23788406       2.08685643      -1.16133910      -3.40699006       0.53812094      -6.79239477      -0.51755659      -4.26107725       0.20975035
C        2.81822459       3.29330603       4.55584027       3.08372803       1.40263952       0.93833380      -7.13249605       3.34725476       0.94125822       5.63430999
C        0.77110242       1.98887210       1.51640791       1.87717642      -0.92727521       2.62387609      -7.34558894       2.37977452       2.79742003      -7.12784280
C        1.13238870       5.09554171       5.15237615       0.38829903       1.94289275       1.95998815      -6.98187459      -0.83305400      -0.81099091      -1.36966361
C        4.68262822       2.57004920       3.31537162       0.09635172      -1.72807712       2.00848945      -6.95715202       0.77899448      -1.01869438      -5.26940858
C        0.80039378       0.62908051       4.04338539      -0.85366495      -0.26641367      -2.29685665      -6.12726176      -0.33937468       1.61222226      -1.18921287