24
Lattice="2.53017074 0.0 0.0 0.0 6.83384267 0.0 0.0 0.0 8.5099505" Properties=species:S:1:pos:R:3:momenta:R:3:energies:R:1:forces:R:3 virial="0.9179031634948371 0.0 0.0 0.0 0.881053318046228 0.0 0.0 0.0 1.4601498699259126" config_type=Crystalline_RSS energy=-161.8164525776723 free_energy=-161.8164525776723 stress="-0.2266515248071596 -8.403420730125007e-17 -2.2635476714141436e-18 -8.403420730125007e-17 0.030432978864066738 1.730199251337186e-16 -2.2635476714141436e-18 1.730199251337186e-16 -0.040952978551887446" pbc="T T T"
C        1.89763000       0.63344000       2.57905000      -0.61424400      -0.33405737       0.07442370      -7.90281892      -0.00011625      -0.00007174       1.74107276
C        1.89763000       5.31723000       0.79557000      -1.04808200      -0.89232597      -0.93497687      -6.16211849      -0.00023126      -1.88530393       2.85030094
C        0.63254000       6.20041000       7.71438000       0.49560430      -0.41393151      -0.88546750      -6.16211565       0.00023126       1.88533767      -2.85032644
C        0.63254000       6.20041000       0.79557000       0.33842838       0.42190289      -0.08543257      -6.16211565       0.00023126       1.88533767       2.85032644
C        0.63254000       4.05036000       2.57905000      -0.17484873      -0.23400724       1.45266507      -7.90281482       0.00011625      -0.00017815       1.74110693
C        1.89763000       1.90031000       3.45940000       0.80765342      -0.20622241       1.06210770      -6.16213229      -0.00023126      -1.88551001      -2.84990836
C        1.89763000       0.63344000       5.93090000      -0.37223914       0.37014709      -0.12589078      -7.90281892      -0.00011625      -0.00007174      -1.74107276
C        1.89763000       1.90031000       5.05055000       0.01704381      -0.76029831      -0.11792839      -6.16213229      -0.00023126      -1.88551001       2.84990836
C        0.63254000       2.78348000       3.45940000       0.45852383       1.18473444      -1.19113916      -6.16212822       0.00023126       1.88572617      -2.84992546
C        0.63254000       2.78348000       5.05055000       0.61729023      -0.25842980      -0.11561667      -6.16212822       0.00023126       1.88572617       2.84992546
C        0.63254000       0.63344000       6.83402000      -0.21462763       0.55032113       0.37346596      -7.90280367       0.00011625      -0.00007174       1.74139233
C        0.63254000       5.31723000       3.45940000       0.11868675      -0.43596381       0.23430472      -6.16213566       0.00023126      -1.88526659      -2.84987471
C        0.63254000       4.05036000       5.93090000       0.01900735      -0.10747843      -0.10581514      -7.90281482       0.00011625      -0.00017815      -1.74110693
C        0.63254000       5.31723000       5.05055000      -0.20661677       0.35852609      -0.02341296      -6.16213566       0.00023126      -1.88526659       2.84987471
C        1.89763000       6.20041000       3.45940000       0.74805782       0.74207905      -0.73070243      -6.16213282      -0.00023126       1.88530032      -2.84990021
C        1.89763000       6.20041000       5.05055000      -1.02607976      -0.14951880       1.34322601      -6.16213282      -0.00023126       1.88530032       2.84990021
C        1.89763000       4.05036000       6.83402000      -0.46435957       0.91877537      -0.10718331      -7.90279957      -0.00011625      -0.00017815       1.74142650
C        0.63254000       1.90031000       7.71438000      -0.18145665      -0.20875811      -0.71298678      -6.16211513       0.00023126      -1.88554736      -2.85033459
C        0.63254000       0.63344000       1.67593000      -0.20866345       0.39425665      -0.43520673      -7.90280367       0.00011625      -0.00007174      -1.74139233
C        0.63254000       1.90031000       0.79557000       1.18737773      -0.68366604      -0.42096523      -6.16211513       0.00023126      -1.88554736       2.85033459
C        1.89763000       2.78348000       7.71438000       0.72356872      -1.09214687       0.63140199      -6.16211105      -0.00023126       1.88576351      -2.85035168
C        1.89763000       2.78348000       0.79557000      -0.75497907       0.99247016       0.30380807      -6.16211105      -0.00023126       1.88576351       2.85035168
C        1.89763000       4.05036000       1.67593000      -0.23959032      -0.50814282       0.45851072      -7.90279957      -0.00011625      -0.00017815      -1.74142650
C        1.89763000       5.31723000       7.71438000      -0.02545525       0.35173460       0.05881058      -6.16211849      -0.00023126      -1.88530393      -2.85030094
24
Lattice="2.53017074 0.0 0.0 0.0 6.83384267 0.0 0.0 0.0 8.5099505" Properties=species:S:1:pos:R:3:momenta:R:3:energies:R:1:forces:R:3 virial="0.9179031634948371 0.0 0.0 0.0 0.881053318046228 0.0 0.0 0.0 1.4601498699259126" config_type=Crystalline_RSS energy=-161.2670303669678 free_energy=-161.2670303669678 stress="-0.14964387440275267 -0.0018637933385926933 -0.026390641570445596 -0.0018637933385926933 -0.04703466109292394 0.013003963188720376 -0.026390641570445596 0.013003963188720376 -0.04339275408084306" pbc="T T T"
C        1.88240173       0.62596063       2.60675066      -0.36421503       0.03125923      -1.50604494      -7.78029420      -1.55520871       0.71932535      -1.93436680
C        1.93998928       5.27390265       0.86138074      -0.54641030       0.69952976      -0.85220206      -6.17157946      -1.47592709       2.30269569      -0.53882594
C        0.62816626       6.20149596       7.67748779      -0.35592702      -0.83175252      -0.25260244      -6.28127260      -0.23846563       2.20224551      -0.64784967
C        0.65617669       6.22809685       0.78083436       0.73597481      -0.70114235       1.50143863      -6.13946383      -0.53550027      -2.13343425       1.55545034
C        0.61071431       4.06748942       2.64173052      -0.10288250       1.01335928      -0.93515971      -7.81747868       1.10559728       1.04054500      -3.89600805
C        1.84122320       1.88630941       3.44495559       0.34993067       0.41368486       1.57926589      -6.16814317       0.97617368       0.14413369      -2.63292339
C        1.92559589       0.66022983       5.88670888      -0.27260566       0.36637567       0.93914645      -7.79105873       0.14391019      -1.04450581       2.08324470
C        1.91737649       1.86319198       5.01734736       0.14612493       0.82740164      -1.22389329      -6.28288617      -1.06877481       0.47244348       3.05977316
C        0.58648606       2.85624260       3.40016653      -0.63578766      -0.63557504      -0.09872260      -6.10183003       0.21829504      -3.77375288       0.83165601
C        0.62475789       2.74616970       5.05920167       0.89894318      -0.61604177       0.24571601      -6.21632548       1.09377432       2.97886051      -0.43366375
C        0.62413913       0.65496522       6.87303640       0.17406652      -0.38349769      -1.10760280      -7.82377287       1.21759402      -1.22327348      -1.98030747
C        0.65003920       5.29172138       3.44439663      -0.36623709       0.45005562       0.40258988      -6.23279098      -1.39614034       1.21778398      -0.58623881
C        0.62549796       4.04666011       5.85465352       0.00166448       0.24398561       0.04923225      -7.71057840       0.96218261      -1.64798557       3.55955047
C        0.67653038       5.28079188       5.03414086      -0.06419496       0.60103343       0.06241475      -6.22472207       0.65412636       1.34988008       1.97202271
C        1.89585847       6.24784130       3.44271587       0.32443017      -1.14026837      -0.24846856      -6.17990622       0.66247509      -1.87381411      -0.81482751
C        1.98037963       6.24302244       5.09055955       0.00239410      -1.48306492      -0.32844315      -6.14336114      -2.56940660      -0.72656869      -0.33054575
C        1.90515776       4.04186015       6.88492999      -0.25197774      -0.12959335      -0.61941543      -7.60847142      -1.41921087      -0.28290023      -1.18091630
C        0.62677969       1.86783299       7.72646246      -0.07792861       1.58597055       0.45581467      -6.26924069      -1.57923939      -0.06787153      -2.10547156
C        0.58028575       0.60791350       1.60003150      -0.58195355       0.05095449       0.13188333      -7.75116954       2.44306259       1.90400743       2.98349178
C        0.61188863       1.87614167       0.80573018       0.47409318       0.30206450       0.00828125      -6.13137754       0.97768267      -0.07604079       1.56506341
C        1.85762089       2.74972033       7.74143277      -0.12677003      -1.26994481       0.05516084      -6.21271872       2.19290617       2.80649094      -2.07690122
C        1.92040564       2.83031711       0.83764790       0.89007497      -0.53422419      -0.21504705      -6.15414711      -1.84492095      -1.31833138       1.57682623
C        1.90563779       4.07337156       1.65318757      -0.57272246      -0.06697441       1.10060235      -7.84421131       0.57542626      -1.11206006       2.70555602
C        1.88893128       5.31967135       7.75391069       0.32191558       1.20640480       0.85605575      -6.23023000       0.45958840      -1.85787286      -2.73378858
24
Lattice="2.53017074 0.0 0.0 0.0 6.83384267 0.0 0.0 0.0 8.5099505" Properties=species:S:1:pos:R:3:momenta:R:3:energies:R:1:forces:R:3 virial="0.9179031634948371 0.0 0.0 0.0 0.881053318046228 0.0 0.0 0.0 1.4601498699259126" config_type=Crystalline_RSS energy=-161.72774671931165 free_energy=-161.72774671931165 stress="-0.12211303201937854 0.02143132361731489 0.006925244170291891 0.02143132361731489 0.07740383741068314 -0.010831065186226896 0.006925244170291891 -0.010831065186226896 -0.11834549873753297" pbc="T T T"
C        1.84865921       0.64507826       2.71170577      -0.64633999      -0.40624171       3.17292196      -7.20599573       2.05959887      -3.55197439      -0.56261112
C        1.94194879       5.23563781       0.70362445       0.84487922      -0.71676171      -0.18270647      -5.70791005      -2.92611346       2.56892809       5.02241893
C        0.68834370       6.24083742       7.67846814       0.42782234       1.25476051      -1.69834293      -6.17532301      -2.48031897       1.54082731      -1.56958568
C        0.58372070       6.33681432       0.78930039      -0.75992802       1.45919818       1.76841489      -5.83973050       2.36985020      -2.38150160       2.72584968
C        0.63165957       4.04698940       2.42350888      -0.25550988       0.49333502      -0.13705043      -7.72201387       2.05025387       1.34571525       0.62966189
C        1.93108223       1.86331759       3.47892273      -0.45127251      -0.93958449      -1.27822629      -6.04742113      -0.97237971       2.88135463      -0.41906099
C        1.89798427       0.54656121       5.77326249      -0.07347348      -1.43339608      -1.87097156      -7.08317762      -0.86198841       0.29703383       1.47264111
C        1.86457203       1.83763948       4.98505405      -0.03339556      -0.48381074      -0.16108891      -6.02933243      -1.57734708       1.56238009       3.95354067
C        0.69959526       2.90956721       3.47342667      -0.44739749       0.52537078      -0.54378455      -5.89419230      -1.23265602      -2.34629444      -2.49353013
C        0.53753991       2.84336770       5.16705846       0.41768777       1.68635651       0.76242479      -6.09626117       3.35562316      -0.48571728      -1.93879284
C        0.61494965       0.62950746       6.73890490      -0.03252227       0.39992499       0.52867098      -7.55452712       2.43573626      -1.53644354      -4.02982947
C        0.67639010       5.49037830       3.00986248       0.01073335       1.27536403      -2.42555491      -6.09579179       0.28885582      -6.44905347      -0.24463641
C        0.59358019       4.02404038       6.06572878      -1.00259470      -0.15571867       0.61231650      -7.59468045      -0.54437395       1.59015383       2.37455034
C        0.58117840       5.50289037       5.59527601       0.21276686       0.56640674       1.10248748      -5.78703032       3.19531714      -7.90181866      -2.59679769
C        1.96750301       6.03041458       3.50283917       1.24913576      -1.92067234      -0.90463023      -7.71720711      -2.37046229       4.91037438       0.09545695
C        1.89912445       5.97340030       5.02364181       0.61320974      -0.32351520       0.78499292      -7.59465833      -2.00664708       7.79572590       0.16673299
C        1.88621151       4.02416703       6.94318672       0.44876943      -1.26285743       2.06727826      -7.26886031      -0.53038373      -0.13487500       0.93428629
C        0.66503579       2.06232189       7.17187590      -0.86810909      -1.92430440      -0.25124459      -6.07445874      -0.67064067      -1.90109203       4.61809981
C        0.59106931       0.63316606       1.81663149      -0.24164358       1.36763897       1.12059321      -7.59407429      -0.26760845       1.34723459       0.74569801
C        0.60929692       2.09632209       1.38001976      -0.25738515      -0.59508680      -0.13520935      -5.72192012       0.18413390      -2.88420630      -6.35119529
C        1.94116689       2.66930119       7.70863730      -0.42255773       2.81693401      -1.79608909      -7.87923759      -1.26574054       0.41563565      -1.72427710
C        1.88689241       2.63867231       0.71560464       1.15646030      -0.51705467       1.57491849      -7.59013573       0.58418672       1.95444725       3.92217858
C        1.91451684       3.97451089       1.52053005       0.19733233      -0.20911548      -2.74299139      -7.32818951       0.01570937       1.20162433      -0.25977818
C        1.91001887       5.28601675       7.74232899      -0.08666763      -0.95717000       0.63287122      -6.12561750       1.16739505       0.16154158      -4.47102033
24
Lattice="2.53017074 0.0 0.0 0.0 6.83384267 0.0 0.0 0.0 8.5099505" Properties=species:S:1:pos:R:3:momenta:R:3:energies:R:1:forces:R:3 virial="0.9179031634948371 0.0 0.0 0.0 0.881053318046228 0.0 0.0 0.0 1.4601498699259126" config_type=Crystalline_RSS energy=-166.41675965259452 free_energy=-166.41675965259452 stress="-0.13993540190453602 -0.017736924353427864 -0.020586699906787645 -0.017736924353427864 0.1180447308373594 -0.02560793782757769 -0.020586699906787645 -0.02560793782757769 -0.1712042833723669" pbc="T T T"
C        1.91608283       0.76863742       2.72705367      -0.50962464      -1.16369743       1.38286105      -7.17009246      -1.47485820      -5.83241631       3.44624777
C        1.89899016       5.43383336       0.71975180       0.08583703       3.71335639      -1.47961744      -7.70702576       1.03933095       1.69161538       4.47534413
C        0.58440747       6.13464990       7.34017284       0.65066568      -2.69791692      -0.39181507      -6.35880612       0.57555125      -0.35212517       2.72378838
C        0.65189690       6.14842544       1.21271503       0.26451385      -1.23756722      -1.76393801      -6.30474778      -2.34592792      -3.16606560      -2.38877434
C        0.64483166       3.95850157       2.34032291       0.17287988      -0.59320508       0.53299165      -7.58446600       1.46766043       6.01787777      -5.14650123
C        1.91315442       2.03024569       3.44331182      -0.41364556       0.40808191       1.68374176      -7.66588226       0.88590390       6.19863412       0.98290071
C        1.88644265       0.70794677       5.84599132       0.48666251      -0.18967185      -1.14153679      -6.72689267       0.18454951      -2.22861264      -4.82784828
C        1.97894288       2.16891773       5.07040832       0.28009888      -1.05790819      -4.21748146      -7.73631950      -1.50561142      -5.46896170      -1.20032656
C        0.65456462       2.78380987       3.02943388       0.13965791      -0.19028955      -0.17976799      -6.06498155      -1.18822470      -7.07135234       5.42385180
C        0.69296779       2.80165356       5.47882968      -0.04222367       1.67555595       2.48594925      -6.36487022      -1.44766885      -0.25067485      -1.87459031
C        0.61209187       0.57378366       6.67558871      -0.14027781       1.47376872       0.86376533      -7.66332621      -1.70351581       2.44379243      -1.62745901
C        0.58835363       5.20909957       3.12668259       0.12138317       1.98321883       1.95879959      -5.49259775       0.95935432       6.51594329       1.73826329
C        0.62814879       4.02145197       6.20008740      -0.23348567      -0.66867553       0.37852284      -7.61956887       3.04636839       3.47561987      -2.14694536
C        0.64826825       5.26097584       5.39736150      -0.80813893       2.92694661      -1.12685346      -6.04414395      -2.21249319       4.30005825      -4.12407333
C        1.84488111       6.20393873       3.43093111       0.94493330      -2.77386310       0.52607370      -6.87521820       0.83846085      -6.46468486      -0.74906746
C        1.88735625       6.03324755       4.94466596      -0.19317366      -0.75535773       0.16293221      -7.19495043       1.11685154       0.08508507       4.77535862
C        1.91065563       4.13284146       6.96322561      -0.36608425      -3.45978352      -0.62785459      -6.87733030      -1.71607331      -3.56990571       6.91363553
C        0.53829924       1.86631901       7.40625855       0.57340900      -0.49800714      -0.55748209      -6.15659052       2.60877842       2.33657436       1.78450493
C        0.62353859       0.57865881       1.94841804      -1.78288982       2.43321822       1.15079253      -7.63119801       3.34310162       4.08212613      -4.57203884
C        0.69729723       1.87826195       1.06177870      -0.06518334       0.07591426      -0.20050176      -5.85359631      -2.33211630       1.59684173       1.71661929
C        1.80224906       2.62343820       7.72607415      -0.98116984       1.16454022       2.93137839      -7.29389187       0.50935080       0.54417973       1.12025431
C        1.95704869       2.71498051       0.83920260       0.72526547      -0.20239788      -2.80192540      -7.21595581       0.22329617      -5.98745983      -6.51974667
C        1.96281518       4.02723265       1.41024651       0.13929863      -2.55400792      -0.46205892      -7.01301783      -2.19208198       2.16746157       4.23960682
C        1.83875511       5.48006878       7.78088729       0.95129187       2.18774796       0.89302468      -7.80128928       1.32001355      -1.06355068      -4.16300417
24
Lattice="2.53017074 0.0 0.0 0.0 6.83384267 0.0 0.0 0.0 8.5099505" Properties=species:S:1:pos:R:3:momenta:R:3:energies:R:1:forces:R:3 virial="0.9179031634948371 0.0 0.0 0.0 0.881053318046228 0.0 0.0 0.0 1.4601498699259126" config_type=Crystalline_RSS energy=-166.58958263115488 free_energy=-166.58958263115488 stress="-0.1435089016004059 0.010444343045033631 -0.0245636618607164 0.010444343045033631 0.12739809315467393 0.02804304921993259 -0.0245636618607164 0.02804304921993259 -0.14768951865758562" pbc="T T T"
C        1.88275547       0.69547452       2.67460785       0.34678431       0.18935760       0.17294971      -7.30794107      -0.28099310      -1.03279607       0.81658439
C        1.92798467       5.40235443       0.73490480      -0.49757437       2.08256616       0.77523134      -7.32489979      -3.59550218       1.42171700       1.61782303
C        0.66633913       6.17994712       7.40612281      -1.37106550       0.36319244       0.57585396      -6.15194666      -0.25434643       3.27433391      -1.20042014
C        0.58323394       6.14919931       1.17852130       0.51560012      -2.44804914      -0.08985947      -6.01874581       5.49251189      -1.52331578      -2.51744069
C        0.64297242       4.07575244       2.38668871      -1.65260412       3.80278266      -1.27524692      -7.67524434       0.33744961       0.19963674      -2.10960384
C        1.83016804       2.00780189       3.40388427      -0.50463272      -0.74965248      -1.48399763      -7.53266969       2.15663381       3.16570160       2.53834697
C        1.90252015       0.55637632       5.74925845       0.23842850      -1.31325480       0.77651126      -6.94776589       0.30441132      -0.04313792       2.17068702
C        1.91466268       1.90026645       5.02178372      -0.14830396      -2.60692914       0.47136824      -7.08764617      -1.76730207       6.11517838      -0.71474395
C        0.60479346       2.83510183       3.10519204      -0.00349151      -1.26292853       2.05179842      -6.00728608      -0.31150918      -5.42169345       3.30528100
C        0.61552814       2.80653359       5.39662280       0.89391006       1.28788462       1.59275843      -5.77358415       1.89259284      -6.37576567      -1.11405114
C        0.63584578       0.75389384       6.68837853      -0.63886932       2.24121019       1.15868758      -7.52911059      -0.90562874      -5.33510582      -2.86498677
C        0.60754750       5.36750278       3.12761082      -0.08407013       1.66839816      -1.99551333      -6.16868792       1.34749379       1.08626924      -1.46642430
C        0.62985199       3.99969694       6.28746834       1.18415605       3.29358122      -1.43888272      -7.57111796      -1.59741009       2.13095599      -8.21082383
C        0.58460191       5.18937538       5.27975156      -0.34243486       0.72473934       3.80073206      -6.02662452       4.50340731      -3.18515057       5.57358185
C        1.87383498       6.15637847       3.34500098      -0.54338654      -0.00845435      -2.87856169      -7.17277594      -0.51348308      -2.56120779       4.61670395
C        1.91403743       5.89258781       5.09330123      -0.67837292      -3.17509243       0.86062895      -7.32902833      -3.73864315       7.54200314      -7.02601822
C        1.89082446       4.15984874       7.02587008       0.43112300      -2.05835317       0.48261328      -7.10593945       0.74919992      -3.81157521       5.50617409
C        0.59962387       2.00303340       7.39873603       0.22879775      -3.28890295      -2.14497190      -6.23992008       2.54906210       4.39956241       3.21151136
C        0.62647562       0.69813067       1.83572403       1.16243995       3.35480724      -0.72368713      -7.55056934      -0.55180705      -4.40893593       2.39950305
C        0.67758424       1.89826633       1.14251768      -0.34576336      -3.89559340       0.78023198      -6.20696758      -1.03290729       4.62299586      -4.26008338
C        1.87863073       2.76368074       7.86080198      -0.41040491       2.12871961      -0.66096813      -7.21728211      -0.33433938      -3.65631028      -6.06652627
C        1.96609052       2.64014212       0.79240230       1.15754398       1.92690289       0.58450258      -7.79285146      -1.05491373      -1.32847905       2.28430083
C        1.96538864       3.93356584       1.49966066      -0.09688562      -0.42908258       0.64345266      -7.00788921      -2.29755849       5.10772643      -0.18014301
C        1.94074424       5.47600904       7.68458906       1.15907609      -1.82784915      -2.03563153      -7.84308849      -1.09641865      -0.38260716       3.69076801
24
Lattice="2.53017074 0.0 0.0 0.0 6.83384267 0.0 0.0 0.0 8.5099505" Properties=species:S:1:pos:R:3:momenta:R:3:energies:R:1:forces:R:3 virial="0.9179031634948371 0.0 0.0 0.0 0.881053318046228 0.0 0.0 0.0 1.4601498699259126" config_type=Crystalline_RSS energy=-163.31028671446535 free_energy=-163.31028671446535 stress="-0.15323480713774762 0.016145409474232875 -0.0004891534358807687 0.016145409474232875 0.11481505972289803 0.05100788255370432 -0.0004891534358807687 0.05100788255370432 -0.20671589611743724" pbc="T T T"
C        1.85225241       0.61749893       2.79012751      -0.42603492      -0.42805587      -2.32694174      -6.84066971       1.15793885       1.72651813      -2.41902674
C        1.87810988       5.31372796       0.77812074      -2.21273729       3.76629533      -0.86425592      -7.10232461      -1.63400601       2.21049963       2.45460685
C        0.76357944       6.10786206       7.50030132      -0.14481630       1.08562442       4.13623613      -5.99354179      -4.23061594       6.81111421      -1.81150561
C        0.55565503       6.12063707       1.11977624       1.22205326      -1.14802143      -3.01161546      -6.01881807       4.57398779      -3.44704909      -0.31376209
C        0.65335991       3.90379517       2.25085996       1.72481406      -1.99269863      -0.56003675      -7.07665670      -0.29996896       4.33623455      -0.34638397
C        1.90304552       2.13075335       3.44124969       0.83468119       1.09578407       2.28339530      -7.67540009      -2.88095235      -3.61646733       2.55836062
C        1.93754536       0.50268754       5.85415878      -0.71455217       2.61179470       0.23923725      -6.03774823      -2.97741151       6.10181778      -4.50824737
C        1.79530874       2.24137410       5.06836945      -0.82002189       1.01328918      -2.61769465      -6.93595764       4.30823523      -6.27998291       0.20735045
C        0.60903124       2.72326333       2.97334102      -0.78234706       1.27149789       0.27351217      -6.02540268       3.33470653      -1.94047087       4.27199846
C        0.59067939       2.85414170       5.54258098      -0.07021014      -0.16048565       2.37471565      -6.36725397      -3.14637932       1.70208344      -1.84518481
C        0.61310706       0.68313369       6.70498393       1.20176117      -1.50094977       1.00380557      -7.61578186       5.90633786      -5.27372536      -0.14372174
C        0.63477003       5.38826408       3.18549648      -1.06807464       1.34256213      -0.56726212      -5.92716102       3.25493946      -3.82669859      -4.75766675
C        0.59289577       4.26156376       6.15409303      -0.40878261       1.47379861       0.38397305      -7.52166576       3.39919906      -2.77464810       3.48194293
C        0.61810218       5.46332978       5.35233114       0.28247192      -0.59900334       4.99402350      -6.00285988      -1.98200534      -9.87462792       3.40752722
C        1.95197158       6.10005423       3.47832532       1.96605892      -0.43176820      -2.25695186      -7.61153120      -4.13213494      -0.98538012       0.94328397
C        1.86042786       5.96651563       4.96531618       0.91705426       0.13035469      -1.56040020      -7.28820603       2.33664760      13.06217567      -2.07929128
C        1.93746882       4.25506571       7.07582964      -0.35185001      -0.32284382      -0.69893329      -7.05704207      -2.70077925      -4.41261388      -2.88522792
C        0.65128305       1.88444130       7.48449949       0.72748261      -3.75714303      -0.28446478      -5.84248351      -3.98981523       6.31759233      -1.00073961
C        0.59343721       0.63380683       1.79355458       0.04278444      -1.15068149       1.19988055      -7.54265561      -0.78918200      -4.23442249       7.02424703
C        0.61647117       1.80748291       1.07640368      -0.35646062      -0.83143664      -2.03508587      -6.19562363       0.06855112       5.33020143      -7.26671987
C        1.87120675       2.80179472       7.68635026       0.20995394       0.64446635      -1.12337270      -7.01590478       3.40018109      -4.57579408      -1.73184663
C        1.90493253       2.53990822       0.61335634      -1.66995888      -2.04626762       1.75992005      -7.34564569      -0.18851404      -2.68467020       5.42335221
C        1.96330212       3.75805591       1.39207260      -0.36789833      -0.56953413      -1.14826423      -6.86309621      -2.91323820       8.79480515       0.76201720
C        2.01409697       5.48176203       7.83790163       0.26462909       0.50342223       0.40658034      -7.40685597       0.12427850      -2.46649137       0.57463744
24
Lattice="2.53017074 0.0 0.0 0.0 6.83384267 0.0 0.0 0.0 8.5099505" Properties=species:S:1:pos:R:3:momenta:R:3:energies:R:1:forces:R:3 virial="0.9179031634948371 0.0 0.0 0.0 0.881053318046228 0.0 0.0 0.0 1.4601498699259126" config_type=Crystalline_RSS energy=-161.83289035043828 free_energy=-161.83289035043828 stress="-0.1823406353943677 0.008080317924063416 0.01591874302932174 0.008080317924063416 0.14996872943714915 0.08800904023952313 0.01591874302932174 0.08800904023952313 -0.21980014415828023" pbc="T T T"
C        1.91573564       1.00228125       2.70628567      -0.77816757       0.35931025      -2.94142541      -6.73150687      -0.20500525      -7.06940893       2.07551717
C        1.86295267       5.30123736       0.75778775       0.37088048       1.90589078       0.05705524      -6.91029414       0.55053689       5.84967418       2.82711547
C        0.56504280       6.30631187       7.53736742      -0.14439741       1.46068134       2.78632788      -6.09113577       2.79946963      -5.30186150       0.85709047
C        0.61419427       6.15496562       1.14308890      -0.32593628      -2.44237388       1.50303960      -5.95459182      -0.20445197      -2.71352452       0.77597148
C        0.55438092       4.09353402       2.24610496      -1.36709278      -1.49468580       1.91470695      -7.30595047       3.82923173       0.19604955      -1.18688530
C        1.95187535       2.29176432       3.55366976      -1.78356817      -1.03536562       0.80966774      -7.83047554      -4.15555433      -1.99535398      -2.88408600
C        1.78932457       0.39427375       5.81743781      -1.49383365       1.85799303      -0.04660303      -6.65246238       7.29616707       5.28456992      -8.17553148
C        1.91838608       2.01369458       5.06116565       0.60506623       0.57441146      -2.42513719      -7.00829973       1.91467251      -9.53604838      -5.40834956