24
Lattice="2.53017074 0.0 0.0 0.0 6.83384267 0.0 0.0 0.0 8.5099505" Properties=species:S:1:pos:R:3:energies:R:1:forces:R:3 virial="0.9179031634948371 0.0 0.0 0.0 0.881053318046228 0.0 0.0 0.0 1.4601498699259126" config_type=Crystalline_RSS energy=-163.11307353679314 free_energy=-163.11307353679314 stress="-0.16501986884186323 1.874971987821382e-16 -1.7821536350469698e-16 1.874971987821382e-16 -0.021654139714695507 -3.5134249538979427e-16 -1.7821536350469698e-16 -3.5134249538979427e-16 0.028639721484346656" pbc="T T T"
C        1.89762821       0.63343757       2.58370816      -7.94432970      -0.00007659      -0.00000875       0.00694447
C        1.89762716       5.29516905       0.83708536      -6.22240261       0.00007487       0.00206189       0.03726250
C        0.63254284       6.22247021       7.67286446      -6.22240197      -0.00007487      -0.00208566      -0.03725618
C        0.63254284       6.22247021       0.83708554      -6.22240197      -0.00007487      -0.00208566       0.03725618
C        0.63254179       4.05035820       2.58370837      -7.94432888       0.00007659       0.00000959       0.00694191
C        1.89762716       1.87824719       3.41788985      -6.22240252       0.00007487       0.00208123      -0.03726826
C        1.89762821       0.63343757       5.92624184      -7.94432970      -0.00007659      -0.00000875      -0.00694447
C        1.89762716       1.87824719       5.09206015      -6.22240252       0.00007487       0.00208123       0.03726826
C        0.63254284       2.80554777       3.41788994      -6.22240300      -0.00007487      -0.00205830      -0.03727017
C        0.63254284       2.80554777       5.09206006      -6.22240300      -0.00007487      -0.00205830       0.03727017
C        0.63254179       0.63343757       6.83868255      -7.94432940       0.00007659      -0.00000875       0.00696308
C        0.63254284       5.29516904       3.41788982      -6.22240282      -0.00007487       0.00206607      -0.03726840
C        0.63254179       4.05035820       5.92624163      -7.94432888       0.00007659       0.00000959      -0.00694191
C        0.63254284       5.29516904       5.09206018      -6.22240282      -0.00007487       0.00206607       0.03726840
C        1.89762716       6.22247023       3.41788964      -6.22240217       0.00007487      -0.00208985      -0.03726208
C        1.89762716       6.22247023       5.09206036      -6.22240217       0.00007487      -0.00208985       0.03726208
C        1.89762821       4.05035820       6.83868275      -7.94432857      -0.00007659       0.00000959       0.00696051
C        0.63254284       1.87824721       7.67286467      -6.22240232      -0.00007487       0.00207704      -0.03726236
C        0.63254179       0.63343757       1.67126745      -7.94432940       0.00007659      -0.00000875      -0.00696308
C        0.63254284       1.87824721       0.83708533      -6.22240232      -0.00007487       0.00207704       0.03726236
C        1.89762716       2.80554776       7.67286476      -6.22240280       0.00007487      -0.00205411      -0.03726427
C        1.89762716       2.80554776       0.83708524      -6.22240280       0.00007487      -0.00205411       0.03726427
C        1.89762821       4.05035820       1.67126725      -7.94432857      -0.00007659       0.00000959      -0.00696051
C        1.89762716       5.29516905       7.67286464      -6.22240261       0.00007487       0.00206189      -0.03726250
