24
Lattice="2.53017074 0.0 0.0 0.0 6.83384267 0.0 0.0 0.0 8.5099505" Properties=species:S:1:pos:R:3:momenta:R:3:energies:R:1:forces:R:3 virial="0.9179031634948371 0.0 0.0 0.0 0.881053318046228 0.0 0.0 0.0 1.4601498699259126" config_type=Crystalline_RSS energy=-161.8164525776723 free_energy=-161.8164525776723 stress="-0.2266515248071596 -8.403420730125007e-17 -2.2635476714141436e-18 -8.403420730125007e-17 0.030432978864066738 1.730199251337186e-16 -2.2635476714141436e-18 1.730199251337186e-16 -0.040952978551887446" pbc="T T T"
C        1.89763000       0.63344000       2.57905000       0.51603290       0.46370273      -0.50032631      -7.90281892      -0.00011625      -0.00007174       1.74107276
C        1.89763000       5.31723000       0.79557000       0.23567587      -0.50888356       0.49398325      -6.16211849      -0.00023126      -1.88530393       2.85030094
C        0.63254000       6.20041000       7.71438000      -0.68717441       0.22791924       0.33205877      -6.16211565       0.00023126       1.88533767      -2.85032644
C        0.63254000       6.20041000       0.79557000      -0.29029848      -0.55817507      -0.24738142      -6.16211565       0.00023126       1.88533767       2.85032644
C        0.63254000       4.05036000       2.57905000       0.15137992       0.37621642       0.16682582      -7.90281482       0.00011625      -0.00017815       1.74110693
C        1.89763000       1.90031000       3.45940000      -0.44973964       0.49200757      -0.03935248      -6.16213229      -0.00023126      -1.88551001      -2.84990836
C        1.89763000       0.63344000       5.93090000       0.86890458       0.44129600       0.70428212      -7.90281892      -0.00011625      -0.00007174      -1.74107276
C        1.89763000       1.90031000       5.05055000      -1.10532134       0.54011678      -0.21319609      -6.16213229      -0.00023126      -1.88551001       2.84990836
C        0.63254000       2.78348000       3.45940000      -0.52813173      -0.31301774       0.05888908      -6.16212822       0.00023126       1.88572617      -2.84992546
C        0.63254000       2.78348000       5.05055000       0.16326393      -0.91271353       0.55973115      -6.16212822       0.00023126       1.88572617       2.84992546
C        0.63254000       0.63344000       6.83402000      -0.04931691       0.28468935      -0.38369669      -7.90280367       0.00011625      -0.00007174       1.74139233
C        0.63254000       5.31723000       3.45940000       0.91538125       0.25233590      -0.07416196      -6.16213566       0.00023126      -1.88526659      -2.84987471
C        0.63254000       4.05036000       5.93090000       0.49045375      -0.82890756      -0.11780207      -7.90281482       0.00011625      -0.00017815      -1.74110693
C        0.63254000       5.31723000       5.05055000       0.15466476      -0.07783665       0.07882238      -6.16213566       0.00023126      -1.88526659       2.84987471
C        1.89763000       6.20041000       3.45940000       0.58713299       0.92476504       0.37208087      -6.16213282      -0.00023126       1.88530032      -2.84990021
C        1.89763000       6.20041000       5.05055000       0.58061004      -0.38650069      -0.06513656      -6.16213282      -0.00023126       1.88530032       2.84990021
C        1.89763000       4.05036000       6.83402000      -0.08639453       0.45387621       0.81380180      -7.90279957      -0.00011625      -0.00017815       1.74142650
C        0.63254000       1.90031000       7.71438000       0.89608666       0.40951710       0.72981876      -6.16211513       0.00023126      -1.88554736      -2.85033459
C        0.63254000       0.63344000       1.67593000      -0.26080075      -0.42187540      -0.74936542      -7.90280367       0.00011625      -0.00007174      -1.74139233
C        0.63254000       1.90031000       0.79557000      -1.06988553      -0.27224787      -0.16422869      -6.16211513       0.00023126      -1.88554736       2.85033459
C        1.89763000       2.78348000       7.71438000      -0.56263803       0.52588392      -0.67224313      -6.16211105      -0.00023126       1.88576351      -2.85035168
C        1.89763000       2.78348000       0.79557000      -0.08343347      -0.30432130      -0.67733966      -6.16211105      -0.00023126       1.88576351       2.85035168
C        1.89763000       4.05036000       1.67593000       0.45678741       0.30156937       0.08004673      -7.90279957      -0.00011625      -0.00017815      -1.74142650
C        1.89763000       5.31723000       7.71438000      -0.84323922      -1.10941627      -0.48611023      -6.16211849      -0.00023126      -1.88530393      -2.85030094
24
Lattice="2.53017074 0.0 0.0 0.0 6.83384267 0.0 0.0 0.0 8.5099505" Properties=species:S:1:pos:R:3:momenta:R:3:energies:R:1:forces:R:3 virial="0.9179031634948371 0.0 0.0 0.0 0.881053318046228 0.0 0.0 0.0 1.4601498699259126" config_type=Crystalline_RSS energy=-161.86623113583767 free_energy=-161.86623113583767 stress="-0.12415098860557654 0.0001656771121163613 -0.003529911438499262 0.0001656771121163613 -0.05648493340014658 0.007275344643423045 -0.003529911438499262 0.007275344643423045 -0.03652153404457124" pbc="T T T"
C        1.90512217       0.66217884       2.61453194      -0.14082201       0.41206620      -0.85043061      -7.81985662       0.06864371      -0.68137125      -2.80683513
C        1.87592471       5.26175228       0.80737790       0.76468236       1.20944059      -0.50860255      -6.20899385       0.68998108       1.01198925       1.15706150
C        0.63728620       6.24379450       7.70330151      -0.38448355      -0.03320518       0.23825830      -6.18474848      -0.50420091      -1.65269278      -0.54396255
C        0.63183838       6.22168540       0.82542529      -0.05395436      -0.73841073      -0.07374430      -6.25280027      -0.33701403      -0.76142214      -0.21385183
C        0.64580415       4.05251561       2.62653100       0.49661191       0.08031048      -0.59802139      -7.78907162      -1.66536551      -0.05180954      -1.78828449
C        1.93270587       1.88977713       3.43817598      -1.01193308       0.63898599       0.15672122      -6.23459195      -0.58047388       0.57807039      -1.27532619
C        1.91490200       0.62087817       5.87752619       0.07555342       0.03166786      -0.13645934      -7.74362829      -1.69082218       1.21382858       2.44528956
C        1.92886640       1.88523267       5.05012011       0.06551691       0.37501068       0.15525871      -6.21748284       0.00348022      -0.59168308       1.54737985
C        0.66534100       2.82546222       3.44820532      -0.07455864      -0.56751233      -0.72508435      -6.18056924      -0.15095237      -0.97885291      -1.61944281
C        0.66845524       2.80427669       5.03840358      -0.66650818      -0.78518113       0.06008225      -6.22838264      -0.36855970       0.50056955       2.43562007
C        0.61608109       0.65404054       6.89864674       0.46350374      -0.02325981      -0.06777606      -7.78462360       0.77227327      -0.85668543      -3.68126312
C        0.58563359       5.29381516       3.46721250      -0.25130850       0.30398754       0.07089649      -6.20018666       1.25879072       0.91928822      -2.25463818
C        0.65476919       4.05699229       5.88806062      -0.28492546       0.16840728       1.26140934      -7.81811796      -0.23558283      -1.19770582       1.84582920
C        0.62159014       5.27791567       5.06552315      -0.19412470       0.42368815      -0.43786678      -6.25449488      -0.65520633       1.22949047       1.31698508
C        1.86293037       6.25759758       3.40983048       0.25725271      -0.59312938       0.97319370      -6.16987901       0.44220802      -1.51863367       0.24112074
C        1.85838483       6.21764866       5.05483159       0.06614713      -1.03854501      -0.27774488      -6.22886680       2.08185646      -0.37846582       0.63496460
C        1.91812656       4.05100516       6.88618710       0.50466699       0.42078097      -0.64284454      -7.83037582      -0.81450664       0.38224033      -2.90815768
C        0.59742196       1.88054252       7.69772612      -0.04400785       0.01255297       0.04510585      -6.23475889       0.79162136       0.99959555       0.39638131
C        0.65117707       0.63256765       1.61043990       0.31281940       0.24858921       0.16359117      -7.78367919      -0.64862089      -0.71910120       4.27648788
C        0.64140303       1.84372286       0.82992534      -0.02300697       0.03508682      -0.06379349      -6.21838448      -0.35156369       2.20632095      -0.46672684
C        1.87721971       2.84333140       7.71224378       0.69335186      -0.85315750       0.64580306      -6.19233270       0.26741485      -2.82880559      -0.92629256
C        1.89073862       2.77730618       0.84075334      -0.30215262      -0.88526424      -0.27933632      -6.27051094       0.15103160       0.24834429      -0.34507128
C        1.87461092       4.01786316       1.63648223      -0.01432361      -0.24692702       0.60579009      -7.82807991       1.13496451       0.95247981       2.84034809
C        1.90570680       5.26901768       7.69193829      -0.25399692       1.40401758       0.28559443      -6.19181449       0.34060316       1.97501182      -0.30761522
24
Lattice="2.53017074 0.0 0.0 0.0 6.83384267 0.0 0.0 0.0 8.5099505" Properties=species:S:1:pos:R:3:momenta:R:3:energies:R:1:forces:R:3 virial="0.9179031634948371 0.0 0.0 0.0 0.881053318046228 0.0 0.0 0.0 1.4601498699259126" config_type=Crystalline_RSS energy=-162.04887280999782 free_energy=-162.04887280999782 stress="-0.13284765059422657 -0.0014615900868554734 0.006676243663155319 -0.0014615900868554734 -0.02195446539296977 -0.002610682714123554 0.006676243663155319 -0.002610682714123554 -0.040473382962787366" pbc="T T T"
C        1.91984651       0.62120283       2.60370538       0.18892099      -0.42806206       0.93303149      -7.99077773       0.05182294      -0.24047443       0.30725038
C        1.88405232       5.28334441       0.79121503      -0.31622851      -0.91867381       0.30321499      -6.20152527       0.49694215       1.35596872       2.09538926
C        0.65605113       6.28110447       7.68021843      -0.59215499      -0.02783358       0.41482827      -6.09402659      -0.00136019      -1.73111319      -1.36014722
C        0.62053237       6.24004203       0.79418716       0.64291928      -0.19107826       0.32430765      -6.14042136       0.65835453      -1.01685465       2.14128790
C        0.62135126       4.07404639       2.60245295      -0.13317233       0.09124475       1.30187293      -7.89272011       0.26665705      -0.81338069      -0.61968368
C        1.93924420       1.84751307       3.46061218       0.57820056      -0.48357484      -0.58456050      -6.12900100      -1.88703997       1.26601167      -1.62324595
C        1.87191645       0.61589613       5.91875026       0.08252446       0.09859787      -0.41731659      -7.94499443       1.23053644       0.25059519      -1.01619375
C        1.88701223       1.82825061       5.06463044       0.21122574      -0.53152898       1.16275333      -6.14093881       0.33466554       1.88378017       1.79015626
C        0.63130748       2.83825540       3.46967748       0.33075379      -0.12297732      -0.81765804      -6.10909312       1.36276777      -2.04684825      -2.25322642
C        0.64219293       2.78468652       5.08776270       0.85360952       0.25197802      -0.14044305      -6.22981355      -0.30326326       0.11413970       0.69246919
C        0.65196807       0.66549634       6.81444830      -0.22955179      -0.11443735       0.77808314      -7.99032731      -2.13083670      -1.35344968       0.77441375
C        0.59757215       5.28822057       3.44805173      -0.15073177      -0.68943862      -0.42289608      -6.19930600       0.48956128       0.85858025      -1.82261669
C        0.65392840       4.03539376       5.90710620       0.35900676       0.48219127      -1.45492758      -7.88502121      -0.84394322       0.44801113       1.38242237
C        0.60541177       5.27838505       5.04528966      -0.69480859      -0.67475861       0.64659372      -6.16979229       0.08106718       0.10547029       2.29161244
C        1.86943409       6.22201936       3.45996250      -0.39299493       0.49815254      -0.77641847      -6.15528706       0.65087711      -0.42342361      -2.07374398
C        1.85117869       6.21564224       5.05810298       0.02636013       1.24683461       0.22093758      -6.19714304       0.99019760      -0.27996020       2.28887110
C        1.91671688       4.06665417       6.87388026      -0.46005349       0.35049626       0.83783290      -7.85859156      -0.43212072       0.02799910      -1.01164263
C        0.61481173       1.87619792       7.66001946       0.28614108      -0.28479327      -0.11481358      -6.17278497       0.70789615       1.33582767      -0.41116474
C        0.66307251       0.60774006       1.69717766      -0.20430957       0.31820762      -1.40210636      -7.93201881      -1.41421286       1.26572448      -1.67701942
C        0.63511097       1.86266825       0.80629859      -0.30598910      -0.07109753       0.02235194      -6.12524295       1.16033704       0.22886911       1.88862737
C        1.87650362       2.83626261       7.71279637       0.07083590       0.23543541      -0.26500161      -6.16554472       0.63794733      -1.60719048      -1.85909954
C        1.91696796       2.80567826       0.80024211      -0.50877798       0.86862895       0.67411284      -6.24388077      -0.86406963       0.14773955       1.69129961
C        1.91253255       4.06210506       1.63956299       0.20565344       0.40315672      -0.56201075      -7.90033810      -1.04916469      -0.75693821       1.12048373
C        1.92332371       5.30411449       7.72324918       0.15262141      -0.30666979      -0.66176818      -6.18028205      -0.19361888       0.98091634      -2.73649935
24
Lattice="2.53017074 0.0 0.0 0.0 6.83384267 0.0 0.0 0.0 8.5099505" Properties=species:S:1:pos:R:3:momenta:R:3:energies:R:1:forces:R:3 virial="0.9179031634948371 0.0 0.0 0.0 0.881053318046228 0.0 0.0 0.0 1.4601498699259126" config_type=Crystalline_RSS energy=-162.04564262941443 free_energy=-162.04564262941443 stress="-0.19302840261379367 -0.0033465015659389402 -0.005176544635385714 -0.0033465015659389402 0.007373340788269639 0.005589400007891699 -0.005176544635385714 0.005589400007891699 -0.02183388317282167" pbc="T T T"
C        1.92380205       0.64135815       2.60491447       0.26223703       0.29078851      -0.98417517      -7.88154212      -1.95952524      -0.23558292      -1.30210122
C        1.85718162       5.26715290       0.81454236       0.17686706       0.09648892      -0.97799107      -6.13614369       1.02943820       0.01443192       1.95395228
C        0.63914433       6.19315697       7.67901632       0.21492696      -0.34484590      -0.03264037      -6.22595643      -0.88903587       1.49332963      -1.33087320
C        0.60178691       6.19590393       0.75758883       0.45166592       1.03852524       0.14499078      -6.15832853       0.01345059       0.62634353       3.29196232
C        0.64773782       4.05685041       2.60122964      -0.43170487      -0.29314598      -1.01048597      -7.92538164      -0.81481342      -0.17936649       1.50444251
C        1.87013279       1.91067856       3.42509744       0.57787117      -0.03796330       0.53040676      -6.18811491       1.59826298      -1.36323920      -0.24875397
C        1.92393121       0.63428967       5.93834797      -0.79842255       0.94236756       0.60054126      -7.92513818      -1.80562095       0.24355824      -0.50244133
C        1.89239688       1.89040418       5.07667348       0.49028954       0.63978278      -0.23736097      -6.15203787      -0.94217449      -0.36822886       1.54485812
C        0.62037953       2.81997106       3.48670575       0.29292899       0.01447617      -0.03522595      -6.16139036      -0.30304595       0.01936523      -3.61623365
C        0.59413729       2.80980177       5.04759148       0.43778709       1.32218746       0.48808301      -6.17016889       2.32089710       0.49489921       2.34790859
C        0.61326773       0.63538461       6.86141553       0.12586907       0.16761488      -1.04856308      -7.87991853       1.23285630      -0.18729069       0.07365337
C        0.65687470       5.30206302       3.45397862      -0.44738519      -0.53900853      -0.18891261      -6.22219076      -1.01899752      -0.37512784      -2.09934385
C        0.65584510       4.06136109       5.88517562      -0.09717654      -0.16370094       1.41770795      -7.93584101      -0.97903101      -0.46367425      -0.24140554
C        0.68403045       5.29625649       5.04568819      -0.03895097      -0.71425212      -0.01577172      -6.19635763      -1.49385857       0.21125791       1.91271043
C        1.90570368       6.21409723       3.44607811      -0.00107511      -0.64451121       0.88918561      -6.20374833       1.22014119       0.94414868      -0.95080744
C        1.92769324       6.21657699       5.09601969      -0.54777586       0.01556481      -0.67415788      -6.18973971       0.99344357       0.51472401       0.68814141
C        1.90701632       4.05406121       6.78023061      -0.11133243      -0.62399762      -0.85902142      -7.87161763       0.03057493      -0.42101315       2.85163132
C        0.57846360       1.89672353       7.71921905      -0.08564908      -0.37606074      -0.24658700      -6.20268308       2.03332892      -1.25399164      -1.66072402
C        0.63580950       0.63414869       1.64782819      -0.38532261       0.09904183       1.67827175      -7.80422519       0.69184451      -0.21458974       0.07664740
C        0.66022840       1.90638676       0.82536475       0.19055004      -0.37906796      -0.15684462      -6.22705167      -1.68181498      -1.85141889       0.95436486
C        1.88021311       2.78929984       7.68148793       0.44052259      -0.45046269       0.64896052      -6.13505050      -1.07106060       1.66659284      -1.72183943
C        1.89590367       2.78778254       0.82875528      -0.56684946      -0.01072200      -0.94511532      -6.17328573       1.17646653       1.46831737       1.64227158
C        1.89236267       4.03727074       1.70855325       0.05428169       0.23042148       0.45976484      -7.94726377       0.04379240       0.10542858      -2.03275795
C        1.89799741       5.28993965       7.70789746      -0.20415249      -0.27952064       0.55494066      -6.13246647       0.57448138      -0.88887349      -3.13526259
24
Lattice="2.53017074 0.0 0.0 0.0 6.83384267 0.0 0.0 0.0 8.5099505" Properties=species:S:1:pos:R:3:momenta:R:3:energies:R:1:forces:R:3 virial="0.9179031634948371 0.0 0.0 0.0 0.881053318046228 0.0 0.0 0.0 1.4601498699259126" config_type=Crystalline_RSS energy=-161.8582372155697 free_energy=-161.8582372155697 stress="-0.15533700609738932 -0.0008948311666802997 0.0012282617570164192 -0.0008948311666802997 -0.059270618596888876 -0.004050709927484348 0.0012282617570164192 -0.004050709927484348 0.0032254726931121784" pbc="T T T"
C        1.88857853       0.62133393       2.66039016      -0.63653049      -0.17333125      -0.35847590      -7.79690761       0.22093411       0.07915220      -3.60896389
C        1.86657887       5.30828378       0.81168247       0.10709373      -0.04607105       0.52139290      -6.24808754       1.27190777       0.09383315       0.00942747
C        0.65902492       6.21274319       7.67872335      -0.07388479      -0.43275382      -0.26959996      -6.23351225       0.61513051       0.70434550       0.18019582
C        0.60986356       6.25754178       0.85990349       0.35038900       0.26334298      -0.70169346      -6.16092970       0.28724252      -1.32303256       0.07046428
C        0.62081826       4.03652074       2.60949694      -0.00239825       0.10484298       0.26361435      -7.74362535       0.99867774       0.02029096      -4.22404124
C        1.87165089       1.86915826       3.42795765       0.25892610      -0.15454318      -0.79971160      -6.25769873      -0.44625679       0.62094464       0.41184604
C        1.87968161       0.66183396       5.85106687       0.11560157      -0.55826241       0.75741772      -7.71663903       1.60812650      -0.47543874       2.83724552
C        1.85507075       1.91305220       5.04662741       0.04447708      -0.28254095       0.15714343      -6.29795624      -0.42968758      -0.28379497       0.62028078
C        0.59333330       2.78244963       3.39372659      -0.70216759      -1.04588938       1.16676268      -6.20939174       1.10324161       0.66151204       1.55982780
C        0.57754724       2.82883418       5.11029317      -0.38793369      -1.35371249      -0.24648363      -6.16631827       1.69881245      -0.83780448      -1.96494139
C        0.65437707       0.64218649       6.85955544      -0.75647496       0.01064344       1.14354087      -7.77387797      -1.30814244      -0.48458358      -2.91527399
C        0.65244966       5.29113884       3.38489977       0.28486011       0.20937652       0.60485116      -6.21287363      -1.82554586      -0.25723335       1.67587884
C        0.62655557       4.06932790       5.88018153      -0.21541969       0.81635178      -0.82299998      -7.74540176      -0.41713106      -1.10874278       5.22692542
C        0.64037274       5.29234313       5.11767970       0.39988717       0.79740589      -0.67832971      -6.19288034       1.07239173       1.25335882      -2.37319962
C        1.89047785       6.19210282       3.43025390       0.09581054       0.21402074      -0.47867162      -6.33905526       1.26702149       0.84992744       0.32477773
C        1.93601203       6.23208886       5.05171537       0.20751380       0.42815077       0.43082078      -6.23344817      -2.14845425      -0.76983399       0.66436072
C        1.91015403       4.01827382       6.90220604       0.05612506       0.36381456      -0.52064555      -7.69942606      -0.46326966       1.32837082      -3.37396727
C        0.63123118       1.88518408       7.66230492      -0.20255792      -0.18612818       0.38197718      -6.21942544      -0.09345095      -0.81402332       1.13050321
C        0.64274022       0.66256327       1.69511096       0.38627181       0.64514539      -1.42690414      -7.86244732      -0.89043998      -1.60889226       1.35407991
C        0.65984658       1.87341684       0.87379660       0.21936631       0.23118367       0.72416706      -6.20280337       0.96774701       1.01714511      -0.72163034
C        1.88181884       2.77751652       7.68929751       0.55578866       0.10998692      -0.41840752      -6.34438438       1.13646946       0.36580468       0.39886369
C        1.95450097       2.79439445       0.82666535       0.41430120       0.22492945       0.10176147      -6.25000302      -1.91696393      -0.35232328      -0.89689241
C        1.91952898       4.04252474       1.59728294      -0.90836582       0.29252706       0.56874287      -7.69804490      -1.00507739       0.58687346       3.93688465
C        1.93982635       5.27610660       7.69858188       0.38932106      -0.47848943      -0.10026937      -6.25309912      -1.30328302       0.73414451      -0.32265172
24
Lattice="2.53017074 0.0 0.0 0.0 6.83384267 0.0 0.0 0.0 8.5099505" Properties=species:S:1:pos:R:3:momenta:R:3:energies:R:1:forces:R:3 virial="0.9179031634948371 0.0 0.0 0.0 0.881053318046228 0.0 0.0 0.0 1.4601498699259126" config_type=Crystalline_RSS energy=-162.2054621952154 free_energy=-162.2054621952154 stress="-0.18370263022409902 2.5492815857828262e-05 0.004243260102426146 2.5492815857828262e-05 0.0025573081352232253 -0.00730041967831891 0.004243260102426146 -0.00730041967831891 0.0025892668804876765" pbc="T T T"
C        1.89123222       0.60115469       2.53286660      -0.02955924       0.35075785       1.51822367      -7.96397632      -0.17176819       0.56046074       2.47588990
C        1.88387042       5.29487939       0.84302864      -0.31815803       0.22515313       0.10713957      -6.11515628      -0.96846718       0.85673493       0.68355426
C        0.66918817       6.24391723       7.72363593       0.35815220       0.64900603      -0.18433519      -6.19513550      -1.96342237      -1.00883243      -1.87043473
C        0.58202291       6.25994763       0.81727042      -0.36726234      -0.53197274      -0.57439382      -6.16274614       1.61020287      -2.11078469       0.62131764
C        0.65988110       4.04275642       2.60042805      -0.52048403       0.35418818       0.85710705      -7.90789047      -1.21311914      -0.03450559       2.57741887
C        1.92302065       1.84389065       3.43049511       0.34155604       0.36042536       0.71910955      -6.12144119      -0.30614956      -0.20267255      -1.10380497
C        1.90427603       0.64132844       5.98814298      -0.36906129       0.11838510      -1.58066062      -7.96607883      -0.15323377      -1.22725357      -3.07064324
C        1.91763526       1.85945438       5.12611806      -0.43033472       0.47704468      -0.45329213      -6.13727937      -0.98299077       0.49270701      -0.04401355
C        0.66657995       2.76811039       3.45285334      -0.44249366       1.15067858      -0.53851517      -6.25056895      -0.34028470       1.01853425      -1.74875211
C        0.63471285       2.79702025       5.04907165      -0.37424013      -0.26574264       0.44966288      -6.19562061       0.54776786       0.15124266       2.24221097
C        0.62830001       0.62208410       6.84351109      -0.30404719       0.05461313       0.33202509      -7.94856033       0.97485506       0.75622718       1.74345432
C        0.62400536       5.29240666       3.47555759       0.93784174      -0.39146865      -0.64175712      -6.15907374       1.38605035      -0.39172753      -2.34844765
C        0.62195872       4.06740348       5.90894348      -0.22828125       0.17019982      -0.88257286      -7.90948493      -0.16454188       0.32930100      -2.14553815
C        0.63843855       5.34454302       5.06708759       1.37886130      -0.05938153       0.18373620      -6.22979704      -0.43359719      -2.22688019       1.35993935
C        1.90742580       6.18913897       3.40088679       0.47432260      -0.78880982       0.39723617      -6.15249565      -1.25303247       1.50483711      -0.33251328
C        1.89905099       6.23162165       5.09074105       0.23298926      -0.80927042      -1.02883515      -6.11740519       0.25186334       0.85347297       1.33176714
C        1.87193433       4.07202843       6.77729147       0.28463916      -0.05990633       1.94044171      -7.97015529       0.48290087      -1.13838599       2.46348436
C        0.61384107       1.87507138       7.64649041       0.28133573      -0.44631938      -0.56572062      -6.20576628      -0.57569699       0.20341266       0.59954091
C        0.59860125       0.62498437       1.65740559      -0.31267205      -0.18670361       0.28590797      -7.92787089       1.28516410       1.17561570      -1.25168918
C        0.65032761       1.88661520       0.79821342      -0.08176855      -0.21962621       0.30296642      -6.20493074      -0.70013925      -0.10383438       1.01939364
C        1.85705742       2.79904535       7.64727223      -0.52997606      -0.03175346       0.39410592      -6.13234468       1.17293583       0.98264337      -0.39574051
C        1.92196317       2.81489622       0.85531786       0.57016754      -0.16996520       0.15531455      -6.11532308      -0.48510073       0.42453812       0.08022291
C        1.90030412       4.07769249       1.73629396      -0.25713733      -0.07278878      -2.24500054      -7.97755483       1.07770723      -1.50842698      -3.03763445
C        1.89641204       5.29092921       7.65047667      -0.29438967       0.12325691       1.05210646      -6.13880588       0.92209667       0.64357620       0.15101752
24
Lattice="2.53017074 0.0 0.0 0.0 6.83384267 0.0 0.0 0.0 8.5099505" Properties=species:S:1:pos:R:3:momenta:R:3:energies:R:1:forces:R:3 virial="0.9179031634948371 0.0 0.0 0.0 0.881053318046228 0.0 0.0 0.0 1.4601498699259126" config_type=Crystalline_RSS energy=-162.34711881495997 free_energy=-162.34711881495997 stress="-0.15232545689318486 0.0004213482454980293 -0.006466163386566031 0.0004213482454980293 -0.03450754236199604 -0.012658780640130075 -0.006466163386566031 -0.012658780640130075 0.02114820041032709" pbc="T T T"
C        1.84516857       0.64367902       2.60458807      -0.13277103       0.46170199      -0.49581573      -7.89014118       2.26164736      -0.40262510       0.53526872
C        1.90770907       5.26332687       0.82295646       0.30731079      -0.59220987      -1.37033575      -6.20638173      -0.37882023       0.51201257       1.10438575
C        0.65924181       6.22815168       7.64208514       0.62862128       0.06091108       1.23566839      -6.14823087      -0.37521723      -0.96421297       0.49621650
C        0.63556040       6.20217082       0.86230806      -0.14765442      -0.56252039      -0.95116686      -6.16155363      -0.00345489       0.86804157      -0.63283875
C        0.63787470       4.04815313       2.56110577       0.17125090       0.07693466      -0.71275126      -8.01057318       0.00413825      -0.23029543       0.52782441
C        1.93069127       1.88934888       3.43008187      -0.01731302      -0.32444254       0.75745411      -6.22375168      -0.88531167       0.79776216      -0.24943782
C        1.90893409       0.63673532       5.89762678       0.09107328       0.15914477       0.91169874      -7.92122665      -0.62875914      -0.19035788      -0.02029126
C        1.93214972       1.88856140       5.07041996       0.21562213      -0.49539293      -0.47112730      -6.25140955       0.62500581       0.53747917       0.46482552