24
Lattice="2.53017074 0.0 0.0 0.0 6.83384267 0.0 0.0 0.0 8.5099505" Properties=species:S:1:pos:R:3:momenta:R:3:forces:R:3 virial="0.9179031634948371 0.0 0.0 0.0 0.881053318046228 0.0 0.0 0.0 1.4601498699259126" config_type=Crystalline_RSS pbc="T T T"
C        1.89763000       0.63344000       2.57905000       0.00770096       0.37799601      -0.65696406      -0.00009537      -0.00008074       0.35545188
C        1.89763000       5.31723000       0.79557000       1.08357373       0.35670208       0.63239281      -0.00012835      -0.51953781      -0.27765858
C        0.63254000       6.20041000       7.71438000       0.40365327       0.16709122       0.71403460       0.00013352       0.51955950       0.27765083
C        0.63254000       6.20041000       0.79557000      -0.23145605       0.31671423      -0.47099436       0.00013102       0.51956701      -0.27764165
C        0.63254000       4.05036000       2.57905000      -1.33826530      -0.18042038       0.40661410       0.00009105      -0.00011921       0.35548055
C        1.89763000       1.90031000       3.45940000       0.28058491      -0.92946005      -0.36636230      -0.00013258      -0.51966751       0.27790630
C        1.89763000       0.63344000       5.93090000      -0.87970547      -0.39060386      -0.40706299      -0.00009634      -0.00008329      -0.35545871
C        1.89763000       1.90031000       5.05055000      -1.21403314       0.01139248       0.03378793      -0.00013146      -0.51966298      -0.27791619
C        0.63254000       2.78348000       3.45940000      -0.04531936      -0.09116900      -0.35459969       0.00013285       0.51984167       0.27791357
C        0.63254000       2.78348000       5.05055000       0.36353760       0.86617107       0.78007443       0.00013214       0.51985013      -0.27789778
C        0.63254000       0.63344000       6.83402000       1.08482288      -0.67251249       0.32345373       0.00009489      -0.00008305       0.35569718
C        0.63254000       5.31723000       3.45940000       0.25649857      -0.02090901       0.38428689       0.00012807      -0.51945961       0.27793831
C        0.63254000       4.05036000       5.93090000      -0.01103290       0.29927782      -0.36217016       0.00009422      -0.00012395      -0.35548687
C        0.63254000       5.31723000       5.05055000      -0.02382012      -0.09314533       0.33539751       0.00012951      -0.51945657      -0.27794182
C        1.89763000       6.20041000       3.45940000      -0.04030189      -0.19126164      -0.99588754      -0.00013309       0.51947933       0.27793169
C        1.89763000       6.20041000       5.05055000      -0.49508496       0.30541660      -0.13878614      -0.00013207       0.51948297      -0.27792370
C        1.89763000       4.05036000       6.83402000      -0.38707080       0.56556583       0.38374467      -0.00009466      -0.00012679       0.35572043
C        0.63254000       1.90031000       7.71438000      -0.04174663      -0.72272649       0.42496089       0.00013057      -0.51973575       0.27764654
C        0.63254000       0.63344000       1.67593000      -0.28407284      -0.42129145      -0.37791704       0.00009767      -0.00008558      -0.35570717
C        0.63254000       1.90031000       0.79557000       0.59239229      -0.06350092       0.58181062       0.00013312      -0.51973808      -0.27763855
C        1.89763000       2.78348000       7.71438000       0.12379986      -0.42162879       0.08564017      -0.00013194       0.51991618       0.27763182
C        1.89763000       2.78348000       0.79557000       0.66957765       0.02886277      -0.26638530      -0.00012906       0.51991582      -0.27763426
C        1.89763000       4.05036000       1.67593000      -0.05967043      -0.20972119       0.00750662      -0.00009185      -0.00012107      -0.35573047
C        1.89763000       5.31723000       7.71438000       0.18543817       1.11316050      -0.69657539      -0.00013139      -0.51953053       0.27766734
24
Lattice="2.53017074 0.0 0.0 0.0 6.83384267 0.0 0.0 0.0 8.5099505" Properties=species:S:1:pos:R:3:momenta:R:3:forces:R:3 virial="0.9179031634948371 0.0 0.0 0.0 0.881053318046228 0.0 0.0 0.0 1.4601498699259126" config_type=Crystalline_RSS pbc="T T T"
C        1.86360222       0.59039350       2.57317318      -0.33698959      -0.04202368      -0.16376761       1.03253412       2.04119039       0.94496500
C        1.93598544       5.30488967       0.79557891       0.08495010       0.91013718       0.07621875      -0.34058172      -0.24196327      -0.42018872
C        0.63104116       6.22621477       7.74275988       0.93499782      -0.90478274      -0.01453659       0.48060396       0.06568822       0.07155108
C        0.67301030       6.19267613       0.80589771       0.74686965       0.19250139       0.29556265      -0.58041346       0.45352769      -0.23605096
C        0.62000128       4.04554689       2.59038399      -0.54672930       0.31731152      -0.50735018       0.32906413       0.40738347      -0.17668295
C        1.87968169       1.92534091       3.47136253       0.28196636      -0.55989593       0.05721821      -0.01882514      -1.86762500      -0.29801512
C        1.88860269       0.59205505       5.92643503      -0.89647442      -0.04517141       0.53199621       0.27642047       1.55224895       0.23183286
C        1.86693621       1.88341365       5.05332603      -0.11970747      -0.23517552       0.05364027       0.09135163      -0.74842334      -0.22657210
C        0.61998693       2.79539168       3.47475951      -0.17890110      -0.24508991      -0.00260779      -0.19558065       0.09840022       0.10731274
C        0.59712706       2.74618829       5.06057052      -0.65920619      -0.57948452       0.50390073       0.49295503       1.97391379       0.26873416
C        0.64963731       0.64595390       6.86407252       0.28136099      -0.07820061      -0.98691071      -0.53506571      -0.84373850      -1.14974105
C        0.62327796       5.32135656       3.46388611      -0.58593132       1.08834562      -0.36268511       0.14832312      -0.69651031       0.12850571
C        0.63372238       4.06283993       5.94512620       0.69077918      -0.31269631       0.55777267       0.38492852       0.20074691      -1.59966958
C        0.60861179       5.33165607       5.04576860       0.12693424       0.29517578       0.71402075       0.32701457      -1.12980008      -0.26174158
C        1.89588135       6.20349818       3.45200900       0.57502088       0.15433731       0.17191424      -0.49372938       0.00448790       0.54068053
C        1.87602327       6.20375989       5.04286449      -0.59354505       0.56490786      -0.26520394       0.11189467       0.26879901      -0.14499485
C        1.93053842       4.10430694       6.81066613      -0.64588044      -0.18963782       0.07451782      -1.15391719      -1.23124635       1.30585742
C        0.64568301       1.91701605       7.67241084       0.91144852       0.81511723       0.17090729      -0.32056698      -0.27849013       1.23762321
C        0.62978706       0.62141638       1.69616621      -1.15152355      -0.76426609       0.12085784      -0.24619834      -0.39397675      -1.12556148
C        0.66313958       1.87521312       0.80130340       0.33134928      -0.03530268      -0.82543697      -0.44134474       0.10689358      -1.22784615
C        1.89513474       2.81504406       7.68113529      -0.55006421       0.06101310      -0.24345234       0.77758491      -0.42349610       1.10461926
C        1.92536121       2.74923728       0.77668854       1.01577903      -0.45703420      -0.19370411      -0.19254622       1.64597189       0.11561686
C        1.90525034       4.05393066       1.65980254       0.34385438      -0.07984570      -0.19377386      -0.07898002      -0.91933566       0.35682601
C        1.90401659       5.33358047       7.71325282      -0.06035780       0.12976013       0.43090170       0.14507394      -0.04464656       0.45293826
24
Lattice="2.53017074 0.0 0.0 0.0 6.83384267 0.0 0.0 0.0 8.5099505" Properties=species:S:1:pos:R:3:momenta:R:3:forces:R:3 virial="0.9179031634948371 0.0 0.0 0.0 0.881053318046228 0.0 0.0 0.0 1.4601498699259126" config_type=Crystalline_RSS pbc="T T T"
C        1.88317762       0.63927157       2.59253986       0.62736988       0.18038965      -1.12647697       0.21757779       0.52059656      -0.19044231
C        1.97128153       5.30363251       0.79992340       0.84118287       0.14019466       0.20986986      -1.29172850       0.69659275      -0.24266708
C        0.66044100       6.21972113       7.68679816       0.70293382       0.50307460      -0.25423574      -0.22766076      -1.71936071       2.57878876
C        0.69615608       6.23682845       0.81563633      -0.63064742       0.35831909      -0.01697743      -0.37601069      -1.07259154      -1.25331831
C        0.59804297       4.05950721       2.58822848      -0.91974762      -0.57384129       0.09261003       0.20894875      -0.26988971      -0.35832939
C        1.86865029       1.86722144       3.46604676       0.23690898       0.80669269      -0.47358803      -0.20253342       1.06417060       0.74744546
C        1.91324688       0.60875985       5.90966922      -0.69660780      -0.66563329       0.33885746      -0.83308673       0.42664114       0.92405617
C        1.82521868       1.91769005       5.09363553      -0.83661735      -0.03689193      -0.18259910       1.47945154      -1.00610685      -1.75940835
C        0.59456107       2.76747620       3.45259401      -0.26921789       0.36830662       0.10101478       0.20479994       0.83194196       0.61910760
C        0.58524036       2.81407681       5.03149497       0.95805106      -0.55667360      -0.19362359      -0.17577629      -0.44350123       0.77028865
C        0.66166873       0.58933649       6.86185748       0.21721985       0.48749103       0.46899015      -0.25337195       1.42259455      -1.84735119
C        0.62083400       5.35189177       3.40960247      -0.11323818       0.20941339      -0.78584476      -0.82136548      -0.96976960       1.31808233
C        0.64159864       4.07117859       5.93209767       0.40004380      -0.32660942       0.11283359      -0.85717928      -0.65735191      -0.93834126
C        0.59321235       5.29581727       5.02354582       0.47987981       0.11192098       0.45154762      -0.01113050       0.67650425      -0.42944854
C        1.86306037       6.25920869       3.44508016      -0.36104874      -0.05415541       0.18976091       0.67342353      -1.86663675       0.51063514
C        1.83935940       6.18969914       5.02110275      -0.20377900       0.09983465       0.58098373       1.15589464       0.87876630       0.14519209
C        1.89571957       4.03308727       6.83889754      -1.36521756       0.03031154       0.10930390       0.70828891       1.16115594       0.08222844
C        0.65171938       1.86017614       7.71125518       0.26068445      -0.54395349       0.28240068       0.76257676       1.04500830       0.92191178
C        0.64410882       0.64509801       1.68092492      -0.50393877       0.84767826      -0.16119223      -0.00831655      -0.17891490       0.09965554
C        0.68384810       1.89272322       0.83159188       0.18147758      -0.22308805      -0.10051988      -0.34934190       0.23856017      -1.62132072
C        1.94281026       2.79382250       7.68052502       0.32259694      -0.59563627       0.19253163      -0.91681451      -1.47144806       2.08728957
C        1.95132021       2.78535615       0.83163433       0.58349555      -1.19942354       0.46088378      -0.76300496      -0.02232370      -1.78129983
C        1.86894661       4.03884904       1.67280698      -0.11584588      -0.18505317       0.42822872       1.09624887       0.51996440       0.18949234
C        1.90781707       5.30049049       7.74191108       0.20406163       0.81733227      -0.72475911       0.58011115       0.19539730      -0.57224745
24
Lattice="2.53017074 0.0 0.0 0.0 6.83384267 0.0 0.0 0.0 8.5099505" Properties=species:S:1:pos:R:3:momenta:R:3:forces:R:3 virial="0.9179031634948371 0.0 0.0 0.0 0.881053318046228 0.0 0.0 0.0 1.4601498699259126" config_type=Crystalline_RSS pbc="T T T"
C        1.84980670       0.63343873       2.61541730       0.06488947      -0.87490446       0.47352274       0.72225928      -0.28715646      -1.08938241
C        1.94276278       5.33523478       0.81116821      -0.28531869      -0.77547816       0.27797506       0.29270485      -0.60210073      -1.17601335
C        0.66376638       6.21757884       7.73046471       0.65603239       0.78219231      -0.49758810      -0.08081724      -0.39845496      -0.77382708
C        0.70064328       6.24430425       0.79043120      -0.21753520      -0.44267852       0.38760189      -1.41978967      -0.93382287      -0.05094397
C        0.63726804       4.03746792       2.56870071      -0.65252501      -0.40029271       0.05250256      -0.37208909      -0.03706443       1.16038656
C        1.84896399       1.89031546       3.45774199       0.46159544      -0.81481951       0.15311576       0.49351195      -0.19324823       0.75694609
C        1.86934088       0.67738333       5.93348984      -1.72456608       0.49447364      -0.02155139       0.62225652      -1.65120757      -0.27585474
C        1.85873527       1.89868877       5.04937835       0.55780010      -0.02467389      -0.12417419      -0.34931204      -0.42416909      -0.17660302
C        0.60010515       2.77798757       3.46047600      -0.19746987      -0.39909736      -0.89207961      -0.15222631       0.25888592       0.12300444
C        0.57892246       2.75662712       5.06054956       0.58375966      -0.61521925       0.43291735       1.01383173       1.60766101      -1.04938233
C        0.64550739       0.63832865       6.85696972       0.39376154       0.69854350       0.12115345      -0.12200478      -0.06828398      -0.86949837
C        0.58185077       5.30440215       3.51765817      -0.95122308       0.32619985      -0.81411584       1.07689404      -0.28985241      -1.91838706
C        0.64566922       4.02980471       5.91924761      -0.22418679       0.08414774       0.60788266      -0.83985472       0.19921312      -0.36061519
C        0.58155342       5.35406055       5.06548244       1.06231752       0.41755212       0.36697907       0.61788374      -1.46868324       0.21987966
C        1.87272660       6.18895009       3.45444036       0.49666608       0.26483564      -0.62784987      -0.89381015       0.76395744       1.20255196
C        1.84942915       6.23902691       5.05156200       0.21192126       0.73994709       0.53729770       0.17429116       0.05483361       0.04072058
C        1.91378389       3.99619343       6.80755952      -0.80850092      -0.92086886       0.74736968       0.08318086       1.81558144       0.71701741
C        0.71781133       1.86491623       7.68189712       0.91599912      -0.50565885      -0.95859567      -2.20403886       0.68463111       2.18354034
C        0.61513833       0.65046962       1.68677414      -0.55891002       0.39790795      -0.62531927       0.48365217       0.02233471       0.19068736
C        0.68232786       1.91219694       0.83360624      -0.39240273       0.38594655       0.68569816      -0.75685054      -0.54228497      -2.31659746
C        1.92470857       2.76004452       7.68396371      -0.48323511      -0.01890601       0.10290548       1.36993647       0.14492747       0.63300818
C        1.93613440       2.79279870       0.74838025       0.24895365       0.61896481       0.48263996       0.24343905       0.20070413       0.97642511
C        1.91862977       4.03440425       1.65708810       0.90968802       0.39889305      -0.54514212      -0.07228330       1.14874291      -0.06582881
C        1.92645438       5.30629648       7.67695273      -0.06751077       0.18299330      -0.32314539       0.06923493      -0.00514444       1.91876793
24
Lattice="2.53017074 0.0 0.0 0.0 6.83384267 0.0 0.0 0.0 8.5099505" Properties=species:S:1:pos:R:3:momenta:R:3:forces:R:3 virial="0.9179031634948371 0.0 0.0 0.0 0.881053318046228 0.0 0.0 0.0 1.4601498699259126" config_type=Crystalline_RSS pbc="T T T"
C        1.91438650       0.64064642       2.61913303       0.67182526       0.21777716      -0.09945860      -0.19743352      -1.17416811      -1.09608519
C        1.92541817       5.33367838       0.76469594       0.24002882       1.11913506      -0.08138917      -0.84018803      -0.88705534       0.51849759
C        0.67091378       6.23440411       7.70651184       0.65411900      -0.16373144      -0.70128009      -0.69728929       0.48935014      -0.08695960
C        0.63952282       6.23265256       0.79413540      -0.78004844       1.00176435      -0.33550408       0.90929079      -0.77234805      -0.62750441
C        0.60211747       4.02089485       2.53887065      -0.71329228       0.31394070      -1.23737267       0.79318148       0.69217139       2.44373655
C        1.87035001       1.88001064       3.44219298       0.80982395       0.31011799      -0.55402360       0.37235725      -0.26564541       0.96343422
C        1.86227365       0.64775195       5.94102607      -0.92335047       0.47034626       1.26011038       1.64550006       0.22519906      -1.08358562
C        1.87349721       1.90021119       5.03557322       0.04748097       0.24757206       0.69480935       1.04203343      -1.20502543      -0.15873456
C        0.60219545       2.73928447       3.43852422      -0.08231190      -0.14879107      -0.02537607       0.20813714       1.59076416       0.14699179
C        0.64652721       2.75307722       5.02107885       1.07246902      -0.54398872      -0.33748394      -1.69511199       1.47454536       0.10166085
C        0.66669925       0.65965223       6.81544861      -0.26527766      -1.04563499       0.48584214      -1.68867970       0.04296185       1.69445932
C        0.62049284       5.32755743       3.46368545      -0.04150144      -0.26703937       0.34300462      -1.43790233      -0.85048902      -0.12549132
C        0.58707391       4.01913272       5.89791013       0.20010292       1.36701720      -0.10402341       1.06705546       1.08023286       0.28345126
C        0.61565332       5.33340368       5.01096559       1.04589655       0.56305900       0.35022320      -0.70880920      -1.59506333       1.68110538
C        1.83843011       6.21161418       3.50650538       0.11701746      -0.75101733       0.08134227       1.94262910       0.72124624      -1.23438215
C        1.86204520       6.21656648       5.07333241       0.43256803      -0.70395507       0.53366793       0.52443910      -0.11628519      -0.91016543
C        1.87919783       4.05661865       6.83636016      -1.35844958      -0.69069212      -0.10074760       0.37684265      -0.23051168      -0.19913401
C        0.67041158       1.91735396       7.74609934       0.24015334      -0.50359019      -0.74965218       0.83109367      -0.81026363      -0.57324350
C        0.68490110       0.61932560       1.68005296      -0.72373488      -0.30205433      -0.37006002      -1.19735849       0.52954823       0.36264220
C        0.64301601       1.89028113       0.81035970      -0.80918348      -0.40079548       0.00778119       0.53063148      -1.16907310      -0.03192377
C        1.97440326       2.79842600       7.75286029      -0.02872010       0.11421616      -0.88996540      -2.02644515       0.44659841       0.04195160
C        1.90918377       2.74001222       0.84252137       0.13843971      -0.49115388       0.79321997       0.03863981       1.73096704      -1.11362183
C        1.88929848       4.01160923       1.69402550       0.40028664       0.04636709       0.78249483      -0.12935391       1.15848768      -1.75646019
C        1.91403108       5.35675470       7.68753091      -0.34434138       0.24113097       0.25384096       0.33674100      -1.10614395       0.75936091
24
Lattice="2.53017074 0.0 0.0 0.0 6.83384267 0.0 0.0 0.0 8.5099505" Properties=species:S:1:pos:R:3:momenta:R:3:forces:R:3 virial="0.9179031634948371 0.0 0.0 0.0 0.881053318046228 0.0 0.0 0.0 1.4601498699259126" config_type=Crystalline_RSS pbc="T T T"
C        1.89180862       0.61615315       2.61169647       0.78961588       0.21112556      -0.07722040      -0.11467307       0.61050338      -1.30617905
C        1.87841448       5.29938788       0.77527598       0.45228166      -0.72304165       0.04865316       1.39533520       0.88985270       0.01121604
C        0.64926652       6.25510745       7.72369671      -0.09028067      -0.11582465       0.63247719      -0.32057953      -1.41561282      -0.04559672
C        0.64770486       6.21231904       0.81085236      -0.61748532      -1.00123806       0.77973170      -1.08170044      -0.64567941      -1.51354444
C        0.67606750       4.09128278       2.58887102      -0.87375221       0.42157059      -0.99289291      -0.99909878      -0.14133230       0.04999614
C        1.87492942       1.87783122       3.42826221       0.94716102       0.21388583      -0.23760993       0.49594706       0.89402121       1.55276275
C        1.85692595       0.61474348       5.92312825      -0.34085964      -0.52142850       0.35335929       0.84845084       1.00705802       0.26924255
C        1.93735522       1.87020530       5.07417668      -0.03990926       0.12952306       0.03856646      -1.61235452       0.18866768      -1.92454934
C        0.61631294       2.79750283       3.46065541       0.40106125      -0.68424337      -0.25258943       0.47553104      -0.33722135      -0.00510120
C        0.64346492       2.75832959       5.04128119       0.63921094      -1.13996062       0.78000280       0.57067049       0.16899708      -0.13645536
C        0.59642026       0.63557531       6.81798546      -0.10845085       0.20702151      -0.33421910       0.92987657      -0.48354095       0.92231858
C        0.59042339       5.35533248       3.42558898      -0.06608294       1.03433696      -0.07333255       1.83119452      -0.34607768       2.38537979
C        0.63447448       3.99957806       5.89317210       0.45722081      -0.06371518       1.39922250      -0.64319450       2.08780026       0.84330368
C        0.62944665       5.29712364       5.03389757       0.88226804       0.84037231      -0.87733891      -0.03273650       0.38459259      -0.36081159
C        1.90051687       6.25968157       3.51324134       1.10335300       0.25801860      -0.92292043      -1.19245231      -1.03958189      -1.34273684
C        1.89392884       6.23951379       5.05637235       0.31592278      -0.18838138      -0.33450497      -0.23918301      -2.02575254      -0.30810821
C        1.86779867       4.06477481       6.83039140      -1.28954529       0.50571390      -0.15919255       1.07177854      -1.54207122      -0.14983830
C        0.69836024       1.84673047       7.71779404       0.15136879       0.08601115      -0.05022624      -2.46930623       1.46332622       0.46237773
C        0.61630697       0.58813737       1.66350467      -1.30815683      -0.46987810       0.21337083       0.51527882       1.55241537       1.11283922
C        0.62017670       1.88398543       0.79679970      -0.62352010       0.53996915       1.74973028       0.00799682      -0.48736721       0.46687970
C        1.90765538       2.75041910       7.71459868      -0.60283884      -0.27715146      -0.30953409       0.94591802       1.49507117       0.66179347
C        1.87669669       2.79277545       0.83357827       0.01782959      -0.17827508      -0.60955221       0.94217265      -0.31275785      -1.62398493
C        1.93922915       4.09985825       1.68750781      -0.02328700       0.81336011      -0.26968606      -0.79235917      -1.67538333      -0.65734422
C        1.91835531       5.33457154       7.69707135      -0.17312484       0.10222931      -0.49429445      -0.53251302      -0.28992677       0.63613987
24
Lattice="2.53017074 0.0 0.0 0.0 6.83384267 0.0 0.0 0.0 8.5099505" Properties=species:S:1:pos:R:3:momenta:R:3:forces:R:3 virial="0.9179031634948371 0.0 0.0 0.0 0.881053318046228 0.0 0.0 0.0 1.4601498699259126" config_type=Crystalline_RSS pbc="T T T"
C        1.94291417       0.62790798       2.61336147      -0.12686998       0.62312418      -0.45781603      -1.23279905       0.04678806      -0.77395451
C        1.91151360       5.33475612       0.81269553       0.17056456      -0.13705534       0.55933365      -1.61197734      -0.33178946      -1.18115807
C        0.63517503       6.19333198       7.71750370      -0.03895523       0.48078571      -0.90232409      -0.60864598       0.61492461      -0.08855027
C        0.59364281       6.24819481       0.76048329       0.07125498       0.69338153       1.30144722       1.70088184      -0.69742709       1.51170659
C        0.61310394       4.03196440       2.60588676      -1.31544956      -0.64713843      -0.06605754       0.54380059       1.05904496      -0.94656444
C        1.90538399       1.87815593       3.47488774       1.56027839       0.21270431      -0.56947898       0.26876539       0.57117468       0.00606078
C        1.88988656       0.59410626       5.91306764      -1.10380171      -0.28393720       0.01059843       0.33776930       1.85192990       0.86090511
C        1.91900261       1.85678927       5.04487563       0.22127130       0.94019641       1.55689922       0.77744383       1.26294982       0.35180992
C        0.63166796       2.79502510       3.43427668       0.20203722      -0.41830275      -0.45628186       0.28685397      -1.20650482       2.20718408
C        0.70176203       2.77993001       5.08955184       0.03948629       0.52276291       0.14151413      -2.01352835       0.18502051      -2.21683121
C        0.62833486       0.58742684       6.83041033       0.63350968       1.04191640       1.24440491      -0.23265490       0.80183369      -0.09305634
C        0.67711237       5.30097729       3.50537994       0.37223301      -0.12837860       0.03151823      -1.40836930       0.39417756      -0.59633660
C        0.62443144       4.08393848       5.89118249       0.25018670      -0.41717000      -0.36339198       0.05741636      -0.47493920       1.44804931
C        0.66108328       5.36643119       5.07350850       0.66843611      -1.01741026       0.22245419      -0.47335115      -0.91772032      -1.07886147
C        1.90885465       6.20975033       3.46461863       1.32135853       0.48224508      -0.18547440       1.06205952      -0.00918472       0.65848857
C        1.91456936       6.27044778       5.05398809       0.27727737      -1.06045418       0.64692459       0.13860452      -2.65166545      -1.14589810
C        1.85254316       4.08290438       6.81656298       0.02474053       1.01075023      -0.20071801       1.21440518      -0.98002815       0.62693858
C        0.60515550       1.85391607       7.68032875      -0.25486295       0.10608871      -0.34447046       0.92615676       0.52697217       1.08721185
C        0.63927819       0.64673897       1.69948367      -1.69839558       0.00254771      -0.13199703       0.07965279      -0.27823135      -1.06286466
C        0.59033436       1.87770424       0.79295080      -0.54951969      -0.34949345      -0.55317491       0.63088560       0.28144521      -0.38326508
C        1.90293299       2.76536723       7.69585655      -0.68775571      -0.07864797      -1.08981739      -1.37034130       0.53882962      -0.08127230
C        1.86012051       2.77486149       0.77555499       0.40569233      -1.21968374       0.49801151       0.16888382       0.51025867      -0.34986299
C        1.87380388       4.06339460       1.65477948       0.48363380      -0.02339410      -0.57470882       0.32136562      -0.48415232       0.82480997
C        1.87943276       5.31689924       7.71820455      -0.92635036      -0.33543716      -0.31739455       0.43672270      -0.61370653       0.41531205
