72
Lattice="3.73972251 -6.47739002 0.0 3.73972251 6.47739002 0.0 0.0 0.0 13.55673629" Properties=species:S:1:pos:R:3:momenta:R:3:energies:R:1:forces:R:3 virial="-52.19425634320792 -1.7902606530774028 1.0785041542489338 -1.7902606530774028 -54.34864107265846 0.23658943927722223 1.0785041542489338 0.23658943927722223 5.523593140712213" config_type=Graphite energy=-526.8105409892287 free_energy=-526.8105409892287 stress="-0.09764247095422453 -0.0050088767722784484 -0.0018477728307955768 -0.0050088767722784484 -0.1065778000513311 0.0042200977330725635 -0.0018477728307955768 0.0042200977330725635 0.007285706795258964" pbc="T T T"
C        1.03147000      -1.73322000       1.57812000      -0.90503068       0.22008817      -0.45165925      -7.30648547       1.06063400       0.29257345      -1.87619706
C        3.55934000      -5.19421000       5.25758000       0.54019667      -0.37901487      -0.12626779      -7.39025582      -0.97917855      -0.49534648      -0.44634394
C        1.04915000       1.12553000       1.45674000      -0.50714191       0.58221110      -0.00504656      -7.37630436      -1.65512581       2.36467566       0.71714688
C        6.02653000       2.00804000       5.26509000      -0.28185248      -0.63062050      -0.78876420      -7.32035723       3.02809737      -3.12771136       0.66014587
C        3.52512000      -6.06942000       1.46506000       0.36046902      -0.98782449       0.98544965      -7.35469718       2.47008384       0.25232876      -1.40869771
C        4.85161000       3.15337000      12.16948000       0.42687799       0.47587735      -0.52461824      -7.23836069      -1.07510794      -2.68919096      -2.38950026
C        2.17726000      -3.44090000       8.30183000       0.16260037      -0.26875827      -0.23483794      -7.31327642      -1.73676423      -2.21866928       1.96968773
C        3.42145000      -4.17538000       8.34764000       0.06885212       0.35320271      -0.06108559      -7.34016315       0.91471551       1.77215051      -1.41514201
C        3.61088000       3.81346000      11.88441000       0.25497495      -0.52896761      -0.07824183      -7.18708085      -3.35312507       3.56225896       2.65615593
C        4.79050000       1.23259000       5.30547000      -1.36984502      -0.12079259      -0.59425655      -7.32830600       2.43253037       5.23728918      -0.47643777
C        6.04586000       1.12629000       1.34072000       0.17682571      -0.57520369      -0.12853446      -7.30328009      -3.97194461       2.22759363       1.78884769
C        3.57075000       2.00306000       5.29605000       0.64449306       0.23138037      -0.04765474      -7.31870210      -1.62077722      -0.69271975       0.46354854
C        4.77672000       0.42581000       1.49512000      -0.04692110       0.17838175      -0.29647101      -7.32073856       0.57072486      -2.17948876      -1.23546537
C        3.57897000       1.01582000      12.15195000       0.18763272      -0.46053536      -0.35400490      -7.35789491       0.87128105      -1.66393289      -0.44115305
C        4.68146000       0.82559000       8.29971000      -0.15476434       0.36864347       0.30488938      -7.34010746       1.00102794       2.62558022       1.03474319
C        4.65775000       2.29879000       8.37570000      -1.03083277      -1.02454432      -0.89463470      -7.36072676       0.82871626      -0.83074932      -1.47610296
C        2.35165000       1.70615000      12.13877000       0.23227380       0.16933586      -0.18118966      -7.33083053      -2.89372350      -0.95546525       0.71997766
C        2.34683000      -2.64767000      12.01524000       1.26514387       0.31284392       0.49519892      -7.29960786      -0.52210458       1.30843158       2.15214553
C        3.59247000      -3.39614000      12.11962000       0.64945791       0.73257142      -0.94689358      -7.31018815       2.83134292       2.54017733      -2.16290283
C        4.83442000       1.73074000      12.13356000       0.05849507      -1.26199708      -0.81378573      -7.34347859      -0.21475314      -3.27988866       1.20947182
C        5.93681000       0.14196000       8.33839000      -0.12202408      -0.56038948      -1.05910771      -7.34278826      -1.84671307      -1.69168191      -1.16916438
C        6.07124000      -0.90483000       5.29772000       0.25862025      -0.16985373       0.90659139      -7.34841609      -2.26853688       2.27562261      -1.23894305
C        3.54076000       5.46006000       1.36522000       0.09491337      -0.36726732       0.51609690      -7.31410101      -0.41121317      -1.49533457       1.99984867
C        4.82493000      -0.18528000       5.26753000       0.98819619      -0.34894993       0.04637268      -7.34378730      -2.75068159      -1.31666918       1.18521956
C        6.03908000      -1.74736000       1.43172000      -0.55999956      -0.14210238      -0.93809680      -7.31967555      -3.63094381       1.55250697      -1.53663645
C        4.66568000      -3.43092000       8.25255000      -0.33322590       0.18271443       0.27521087      -7.33790354      -2.04523182      -4.60334891       0.48325549
C        4.85562000      -1.20303000      12.13467000      -0.36935185       0.14185824       0.02156169      -7.30679879      -0.96883846      -0.79094893      -1.86956830
C        3.57116000      -0.45057000      12.10627000       0.18433803      -0.04284251      -0.02160327      -7.38314289       1.40999941       0.31977696       0.88224964
C        4.64303000      -2.03601000       8.24357000       0.17588979       0.09864050       1.80816534      -7.35211995       3.09046765       2.62519920      -0.10898161
C        4.84729000      -3.05556000       5.28387000      -0.00668681      -0.61905905      -0.00142435      -7.33734030      -4.59756832       1.01284626      -0.65753701
C        2.25502000       3.28916000       1.31355000       0.93130863       0.28466869      -0.10826242      -7.31607881       2.93263236       1.40783845       1.65498565
C        3.59185000      -2.32957000       5.28940000       0.05596509      -0.68984944      -0.59877545      -7.33172939      -2.41718153      -1.70163699       1.08237152
C        4.76112000      -3.89819000       1.39580000       0.17665368      -0.13252114      -0.46583586      -7.37244661       0.53331208      -0.48414840      -0.92143633
C        5.90952000      -1.30213000       8.26923000       0.63385998      -0.52053145      -0.31990782      -7.32479071       0.13370395       1.84138810       0.58892627
C        3.45883000       0.10441000       8.32115000      -1.02044548      -0.84000021      -0.56918901      -7.35466345      -2.30209931       2.60495988      -0.85367427
C        3.56192000      -0.91643000       5.35763000      -0.59797982       0.24154744       0.26824881      -7.32349828       3.83642425       2.38185274      -1.26255689
C        4.76275000      -0.99502000       1.43501000      -0.31475876       0.24257016       0.71169948      -7.31451700       2.81630322      -1.14043925       0.74025685
C        3.40789000       3.01007000       8.27952000      -0.19526520       0.85634731       1.80672654      -7.31435247      -0.78357872       2.17399871       1.00273645
C        4.86444000      -2.66769000      11.95291000       1.20581123       0.79681977      -0.23715792      -7.24328091      -4.42294641       2.20777454       2.37968288
C        2.16414000       2.30196000       8.25698000       0.60798367      -0.94259724      -0.12922691      -7.35717055       2.97374015       0.65932187      -0.53073872
C        2.31443000       1.31878000       5.30359000       0.34443463       0.00107600       0.01164084      -7.27099508       1.44314110      -6.34569045      -0.61756249
C        3.52985000       1.10780000       1.49056000      -0.43170636       0.96228271       0.10615418      -7.28573537      -0.51367291       6.70124171       0.94318579
C        4.80645000      -4.49101000       5.25740000      -0.68259792       0.65298468       1.04475370      -7.34772160       2.11022161       3.44285424       0.38309871
C        2.31383000       3.12342000      12.06207000      -0.23284310      -0.61716697       0.06935465      -7.21260117       6.21163196      -1.79110425      -1.69206589
C        2.29700000       0.43574000       1.57036000       0.84851045       0.16857072       0.75917995      -7.31019587      -0.17709360      -3.62491935      -0.94815307
C        2.20191000       0.85545000       8.25849000      -0.45089140      -0.18949696      -0.48509349      -7.33162314      -1.35092497      -1.31215169       1.29235233
C        3.62283000      -4.82616000      12.09752000      -0.46273651       0.66801176       0.62716184      -7.25338064      -4.51546293       1.83250251       1.51894792
C        0.97503000       0.14184000       8.43447000      -0.32396496       0.06885264      -0.29899561      -7.26793828      -2.71441240      -0.18897886      -2.32410739
C        1.08077000      -0.86717000       5.34894000       0.21067418       0.69956129      -0.67360388      -7.26301899       0.78539691      -1.61627206      -2.53429289
C        2.30679000      -0.99131000       1.49585000       0.61024917      -0.10686477      -0.21604015      -7.32141221      -2.02888115      -0.75379938       1.30689500
C        7.30159000      -0.15088000       5.23543000      -0.42515881      -0.15601220      -0.82318154      -7.36439520       1.60051074      -1.64832032       1.27121703
C        1.09957000       0.95987000      12.18754000      -0.83218259      -0.04166040      -0.61939649      -7.29424156      -0.48574693      -1.44512751      -1.59927778
C        3.50054000       2.59477000       1.50781000       0.67911903       0.99441362      -0.23166462      -7.29701773       1.65960519      -4.54151661      -1.32302968
C        6.04873000      -2.33507000       5.19583000       0.22364011       0.57470536      -0.01352947      -7.31913348       4.99796404      -0.08116776       1.28254280
C        4.76517000       3.28608000       1.48794000      -0.11079250       0.76745356      -0.10739181      -7.35330928      -0.72758956       4.67114775       1.04603735
C        2.34459000      -0.18061000       5.25863000       0.29761667      -0.02854537       0.98645621      -7.28248248      -3.29371016       2.27143027       1.55596217
C        3.53948000      -1.69480000       1.44696000      -0.01789772      -0.19286870       0.56893519      -7.34303494      -1.05249168      -2.79103028      -0.79547502
C        2.32285000      -1.17052000      12.11595000      -0.72035897      -0.46409173       0.09270484      -7.30389400       0.96111766      -3.69347338      -1.69980087
C        3.42519000      -1.31180000       8.31236000       0.64646996      -0.52943927       0.36867679      -7.34179867      -0.48805580      -1.10479408       0.97761651
C        1.06699000      -0.49455000      11.99509000      -0.08285692      -0.75847226      -0.01955663      -7.28179772       2.41312886       2.90374276       1.97487657
C        2.16508000      -2.02585000       8.47808000       0.71081516      -0.27115710       0.17446491      -7.29874601       1.40852702      -0.17970072      -2.21799641
C        2.31344000      -3.04861000       5.32982000      -0.04130051      -0.09728018       0.08844571      -7.30739984       0.17369176       1.61968875      -1.81260144
C        3.51891000      -3.17247000       1.34306000       0.85732428       0.35903191       0.17238935      -7.35339516      -0.33302779       2.68834041       1.15997271
C        4.83387000       4.17442000       5.12874000      -0.10920120       1.17596352       0.55311804      -7.24361116      -1.46566762      -1.07232407       3.01209639
C        2.26301000      -3.86670000       1.43208000      -0.34348598       0.04089988       1.05474730      -7.31384138       2.45868854      -5.14757019      -1.31208592
C        3.56184000       5.26185000      12.02559000      -0.12047917       0.57173861       0.33497398      -7.28958816       4.26289553       0.33060988      -1.75919047
C        0.93956000      -1.31160000       8.33640000      -0.60472491       0.56057939       0.95567177      -7.29847968      -0.96094244       3.29936802       1.99013618
C        6.09968000      -0.49767000      12.05043000      -1.47753496       0.28186289      -0.82825964      -7.30866864      -4.96926091       0.44359573       1.28388065
C        3.38529000       4.49150000       8.36259000       0.42983467      -0.08276812       0.25978231      -7.28963221       3.48048316      -5.52262723      -1.09931156
C        3.58716000       3.44361000       5.28613000      -0.16246512      -0.29475530      -0.80734386      -7.30268954      -1.01467626      -0.14372565      -1.84992711
C        3.44024000      -5.61439000       8.27667000      -0.43551901       0.44938027      -0.12373690      -7.36161653       0.39734112       0.05073550       1.85576516
C        6.06916000       0.95110000      12.16803000      -0.31569711      -0.02226950      -0.15049485      -7.31770122       4.45967248       0.86026159      -1.16392916
72
Lattice="3.73972251 -6.47739002 0.0 3.73972251 6.47739002 0.0 0.0 0.0 13.55673629" Properties=species:S:1:pos:R:3:momenta:R:3:energies:R:1:forces:R:3 virial="-52.19425634320792 -1.7902606530774028 1.0785041542489338 -1.7902606530774028 -54.34864107265846 0.23658943927722223 1.0785041542489338 0.23658943927722223 5.523593140712213" config_type=Graphite energy=-529.4835558895746 free_energy=-529.4835558895746 stress="-0.10145071886762792 0.006824649524737577 0.0014673701966136953 0.006824649524737577 -0.09983822307410817 0.0005200364968896696 0.0014673701966136953 0.0005200364968896696 0.002339087432453513" pbc="T T T"
C        1.07778446      -1.65640965       1.43672188       0.59325317       0.60199748       0.60208887      -7.34445313       2.49759506       1.49343527      -0.19697312
C        3.55099236      -5.19975750       5.26552696       0.19030815      -0.29165186       1.29475644      -7.37115411      -0.70007726      -0.63479690      -0.32186427
C        1.05988310       1.25439877       1.49115441      -0.36683283      -0.25469770      -1.14115923      -7.30546330       4.87129681      -2.70652037       0.56300980
C        6.04304304       1.99227859       5.23387100       0.09609335      -0.91579330      -0.48732429      -7.37464177       1.38612255       0.54513865       0.44451350
C        3.59988509      -5.95998236       1.60891453       0.57563659       0.57792172       0.09195717      -7.34633687      -2.17435619       1.40855835      -0.91788971
C        4.84914092       3.14118871      11.96450074       0.65711338       0.41601248       0.01396731      -7.41937944      -2.31123363      -1.42358626      -0.53048987
C        2.09449828      -3.57108921       8.29426227      -0.91595303      -0.43826502       0.66330658      -7.34266077       3.50025077       0.40304638       0.93263860
C        3.37294054      -4.28410233       8.45538750      -0.15202698       0.83917256       0.61172885      -7.33637618      -1.07801502       0.87483759      -1.38287052
C        3.59370270       3.84347974      12.02221075       0.43152328      -0.15909749      -0.57187472      -7.33478056      -1.96914852       0.85429537       0.89517081
C        4.79790264       1.27093979       5.21107372      -0.67254732       1.01740310       1.25051243      -7.37870031       1.25428110      -0.56758389      -0.05797427
C        6.09976184       1.25156308       1.52744732       0.22835875       0.14040157      -0.60119508      -7.35115420      -0.72524338      -1.16933901       0.75001060
C        3.56601543       1.98842355       5.21071084       0.08864815       0.31566914      -0.48290500      -7.37793131      -1.79720800       1.46131248       0.14991735
C        4.87876451       0.52966379       1.48151211       0.21935305       0.93824333       0.81075604      -7.34242820      -3.94544369      -0.74326097       0.09770568
C        3.62744744       0.93458791      11.86657394      -0.78857674      -0.22399805       1.69322179      -7.28828245      -6.52810934       4.85685430      -0.07525934
C        4.63760200       0.77797718       8.44914022       0.57645618       0.16519701       0.12205325      -7.35033497       0.28726150      -0.44982887      -0.23094177
C        4.62592155       2.19692151       8.37513724      -0.67465862      -0.89813175       0.37805171      -7.33623751      -1.97830600       0.79972937       0.45440567
C        2.32586540       1.67429543      11.91097733       0.27621523       0.10174848      -1.32717989      -7.32511652       2.37829984      -0.55455639       0.30190250
C        2.34567526      -2.61930703      11.94851736       0.54347060      -0.22023863      -0.43857794      -7.33865186       2.79107039      -1.30120514       0.37459401
C        3.59682811      -3.36217970      11.95931255       1.42890621       0.75906249       0.20379689      -7.32121063      -3.39720628       1.25395634      -0.11851887
C        4.83465317       1.68174952      11.85811654      -0.13433318       0.06351483      -0.69825511      -7.34007452       2.48882192      -1.14986535       0.64053680
C        5.90801940       0.06049829       8.42506174      -0.49078205      -0.11649734       1.24211463      -7.33987824      -4.24961400      -1.32017723      -0.41786425
C        6.07344417      -0.87825716       5.33672372       0.36740382      -0.51981239       0.39865381      -7.35870503      -2.42098944      -0.38363865      -1.18567627
C        3.59199664       5.53765767       1.53795603      -0.46271719      -0.22665972       0.24928733      -7.37859310       0.55166922      -0.67896321       0.09078641
C        4.81769212      -0.19039642       5.23945786       0.02387912      -1.27846883      -0.84149588      -7.35044311      -1.20159323       2.81062190       0.41824244
C        6.09453535      -1.67974928       1.55808477      -1.08439523       0.67555123       0.52118321      -7.32548982      -1.44881062       4.22754033       0.41155363
C        4.60651603      -3.56204387       8.41399488       0.45046592      -0.63979793      -1.57363798      -7.37080787       1.10454681      -0.53562664       1.11466249
C        4.79653444      -1.18962051      11.96970258      -0.21362934      -0.14165819       0.49748626      -7.34952065       1.07856482       0.29050133      -0.47597258
C        3.58340211      -0.46291405      11.92634720       0.07051300       0.65159650      -1.55598537      -7.29982699       3.87635315      -2.70909974       0.25361554
C        4.61400110      -2.12374736       8.50262734       0.46058364       0.32332349       0.76264516      -7.35735089      -0.44427830       0.26497449      -1.80439863
C        4.83005303      -3.05191451       5.25597744      -0.45110397      -1.12522029       0.64320981      -7.36014732      -2.43204549       0.84227546      -0.15969817
C        2.33605066       3.39024511       1.60077384      -0.24676642      -0.27328304       0.64871381      -7.37690572       0.78385855       0.45852235      -0.30567530
C        3.55834305      -2.33275291       5.16245906      -0.84898896      -0.72148972      -0.66238850      -7.34828922       1.02559435      -0.07648820       1.09118467
C        4.82495321      -3.79342354       1.56412103       0.02372050       0.14788622       1.09584306      -7.39654809      -1.21689104      -0.68733042       0.03689520
C        5.85514013      -1.40547232       8.34686898       0.41465480       0.17528802      -0.81582658      -7.31744336       2.39537288       2.37962979       1.17132037
C        3.37951912       0.05873850       8.41912619      -0.82644901       0.60340993       1.16490594      -7.38173223       1.89340319      -1.29062074      -0.41694504
C        3.55639595      -0.89183626       5.22085149       0.47281185       0.14000964       0.32228069      -7.38358284       2.07607975      -0.88714400      -0.42348248
C        4.85322337      -0.91463706       1.57061472       0.17391053      -0.71326741      -0.75376375      -7.35125131       0.35641223      -2.18241748      -0.27617041
C        3.35908363       2.92081946       8.45961355      -0.61290934       0.19862910      -0.88961467      -7.34872560       1.59793606       0.48622703      -0.78134050
C        4.80033000      -2.61489483      11.98868353       0.49002845      -0.41547801      -0.29666076      -7.35738859       2.16952042      -2.51304130       0.51571086
C        2.13184890       2.18828688       8.41695481       0.22951253      -0.61081132       0.68629357      -7.34299001       0.72552696       2.08079786      -0.03023487
C        2.30820774       1.28110261       5.22955232       0.59984015      -0.79757518       0.10360154      -7.35248770       1.94806200      -2.27166883       0.31599553
C        3.56942620       1.23887758       1.45940425      -0.44928889       0.03437578      -0.59871085      -7.33352939       4.12160265       0.64949985       0.27720438
C        4.80547971      -4.49898234       5.32261444      -0.58188792       1.25113665      -1.28342938      -7.38092383       0.97249956       2.15999168      -0.60890844
C        2.31067895       3.13517197      12.06681229       0.11507675      -0.91526814       0.29076594      -7.35454043       2.05009975      -1.51442668      -1.12721467
C        2.35310854       0.50763373       1.46155189      -0.00004832       0.09314421       0.70795740      -7.36028480      -2.77838137       1.77079259      -0.46644384
C        2.16833208       0.77462059       8.37297711       0.56064576      -0.15093644       0.24349248      -7.34335031      -4.33846055      -0.54888310       0.58784090
C        3.57571285      -4.82467030      11.94672028      -0.06949687       0.38581597      -0.82297194      -7.38966734       2.15192659       1.32833812      -0.24614122
C        0.89415898       0.06803512       8.41248118      -0.45231081       0.22441823       0.07322259      -7.35213052       0.86306840      -2.22157224      -1.14426209
C        1.07417839      -0.86220602       5.25839902       0.71147459       0.54157941      -0.09381955      -7.33855139       0.81928069      -1.95515090      -0.24486013
C        2.35113692      -0.92352870       1.42934799       1.01447021       0.41897233      -0.47680030      -7.37741671      -0.99170807      -0.94645088       0.50106808
C        7.28002372      -0.14357897       5.19308609      -1.06886370       0.13589484      -0.59302993      -7.34661308       3.06920837      -1.40728691       1.15687972
C        1.11119967       0.93454975      11.89318494      -1.76980365       0.07310429       0.48242332      -7.33064489      -3.85320401       0.98758840       0.33126118
C        3.58052699       2.69312858       1.53438775       0.69589263       0.38941612       0.81243782      -7.35154809      -0.89243272      -2.95529701      -0.47167740
C        6.07248978      -2.31373132       5.28046134       1.30246157       1.36743184      -0.55127413      -7.38951757       0.43312050      -1.10653048       0.42797569
C        4.82937018       3.39811249       1.45214973       1.34856283       0.08151902      -0.58540076      -7.37864784      -0.74465101       0.12747668       0.80667121
C        2.33485296      -0.16523289       5.23819674       0.02763017       0.43939203      -0.71434812      -7.35614601      -2.99530746       1.21020836      -0.07124204
C        3.58344262      -1.64599128       1.56688148      -0.74084808       0.61549512       0.56482435      -7.36807173       0.77024980       1.40105030      -0.36650972
C        2.38581136      -1.18073413      11.99455707      -1.13192095      -0.71796168       0.14751699      -7.31235706      -6.20385952      -0.50519474      -0.44392459
C        3.37546453      -1.40734133       8.34932051       0.37305140      -1.38352485      -1.22624881      -7.36930538      -0.49132577       0.70682736       1.06746520
C        1.09757620      -0.49028218      11.96837696      -0.00274272      -0.08756668      -0.76716469      -7.32812384       1.86124900       0.98571365       0.46496299
C        2.11093745      -2.13196401       8.29784519      -0.05090597       0.09260740      -0.21229789      -7.38318525      -0.32126386       0.80849686      -0.60960787
C        2.32655071      -3.04783826       5.30023546      -0.10318811       0.33136897       0.33154320      -7.37121435      -0.96967259       0.05565842      -0.81906292
C        3.58047089      -3.07959876       1.58746508      -0.45297555      -0.96869240      -0.92365446      -7.36830527       0.15361408       1.17119256       0.27184689
C        4.83308070       4.15232821       5.31730027       0.04408691       0.30318706       0.60462115      -7.35291448      -2.45887384       1.26808776      -0.09656527
C        2.33615337      -3.79011220       1.58814050       0.15380029      -0.40330071       0.54826723      -7.38610611       0.81161970      -0.63848891      -0.80541240
C        3.57248339       5.26352269      12.06832149       0.02386683       0.64837644       0.56236493      -7.34749445       0.76093991       1.02350588      -1.21213049
C        0.86828412      -1.39336170       8.28610089      -0.13301744      -0.10764035      -0.08219663      -7.36674200       0.41613075       1.48401229       0.83890979
C        6.03766541      -0.48521703      11.93234011      -0.78035655      -0.43430251      -1.17582540      -7.36307422       2.25899523      -0.34231550       1.07583102
C        3.35853597       4.38532186       8.36567272       0.77143673      -0.09792373      -0.12824186      -7.33650544      -0.19239573      -3.66503594      -0.17012284
C        3.56400695       3.44367914       5.27308378      -0.29054714      -0.15836422       0.29600444      -7.36287733       1.99151844      -1.06300597      -0.01537465
C        3.39400588      -5.70125049       8.39981638      -0.53667664      -0.04978501       0.43211403      -7.35701602       0.31016191      -0.25683429       0.82134536
C        6.06135656       0.94870197      11.93710478       0.73243243       0.17788586       1.20328742      -7.35327444       0.39692028       0.43253769      -0.62393408
72
Lattice="3.73972251 -6.47739002 0.0 3.73972251 6.47739002 0.0 0.0 0.0 13.55673629" Properties=species:S:1:pos:R:3:momenta:R:3:energies:R:1:forces:R:3 virial="-52.19425634320792 -1.7902606530774028 1.0785041542489338 -1.7902606530774028 -54.34864107265846 0.23658943927722223 1.0785041542489338 0.23658943927722223 5.523593140712213" config_type=Graphite energy=-528.8732781310555 free_energy=-528.8732781310555 stress="-0.10277034111040378 -0.004187431220880316 0.0023566917608794534 -0.004187431220880316 -0.10003313946757546 -0.00017092826404330267 0.0023566917608794534 -0.00017092826404330267 0.004008795385771109" pbc="T T T"
C        1.14085330      -1.57524538       1.65628631       0.53674333      -0.11511737       0.25804429      -7.35425974       2.29174838       2.63800264       0.85042256
C        3.56117553      -5.20248889       5.24649272       0.08616426       0.40467672       0.29924511      -7.37343547      -1.98719953       1.17544310       0.14931601
C        1.13351771       1.32316999       1.57099063       0.69975392       0.21584502       0.55216428      -7.35135815       2.78436996      -2.18883518      -0.04750005
C        6.04281290       1.97956540       5.25870130       0.10656662      -0.63917838      -0.84771272      -7.34155876       0.22101799       3.80431357      -0.54642566
C        3.66233504      -5.89275359       1.52069332      -0.18867671      -1.18846389      -0.02759969      -7.34239434      -2.15174428       2.85766022       1.06070921
C        4.82572642       3.13110221      11.79778354       0.94790273      -0.01023949       0.01112037      -7.32843144       0.49682815      -0.60829187       1.22384460
C        2.05339531      -3.63633300       8.59084924       0.37558886       0.10274676      -0.39723400      -7.30249228       2.83016029      -0.56064595      -1.69808780
C        3.33616495      -4.34135582       8.42086823       0.04123891       0.08830317      -0.10506660      -7.34918124      -1.43417680      -0.72673605       0.58549672
C        3.57417700       3.84555290      11.79363784      -0.54052585      -0.52385170      -0.01566162      -7.37024320      -1.50257930      -0.96204190      -0.98040984
C        4.79417267       1.29562235       5.28990084      -1.27681238      -0.09390742       0.35216229      -7.35032838       1.41044740      -4.73522869       0.15061772
C        6.14854699       1.32782776       1.60608303      -0.27889081      -0.30851564       0.14481208      -7.36514007      -1.99158252      -1.16300797      -0.79958033
C        3.57610239       1.98184091       5.30253887       0.22889105      -0.07574099      -0.38618669      -7.32091745      -3.10492995       2.73268126      -1.45875978
C        4.88538359       0.60199950       1.61077796      -0.19324174      -0.07897252       1.03928998      -7.35569361       0.91562083      -0.31888469       0.51490291
C        3.58093262       1.00688638      11.97122072      -0.37901164       0.37055991       0.43376432      -7.38240887       0.19926337      -1.34798514      -0.11125883
C        4.59264585       0.68271890       8.40713468      -0.35234734      -0.73308009      -1.59485278      -7.37829696      -0.14622868      -1.19760563      -0.23191181
C        4.58011480       2.11302038       8.38702309      -0.61453799      -0.02137525       0.94091963      -7.33462904      -0.65100505       2.47989306       1.27684715
C        2.33553590       1.71461994      11.88003425       0.74688597      -0.58555867      -0.56959952      -7.32374598      -1.78657512      -2.69157940      -0.49799961
C        2.31327649      -2.65010376      11.87958258      -0.42853389       0.19325242       0.07518719      -7.33608871       2.11949772       1.26056276      -1.78101466