72
Lattice="3.73972251 -6.47739002 0.0 3.73972251 6.47739002 0.0 0.0 0.0 13.55673629" Properties=species:S:1:pos:R:3:momenta:R:3:energies:R:1:forces:R:3 virial="-52.19425634320792 -1.7902606530774028 1.0785041542489338 -1.7902606530774028 -54.34864107265846 0.23658943927722223 1.0785041542489338 0.23658943927722223 5.523593140712213" config_type=Graphite energy=-526.8105409892287 free_energy=-526.8105409892287 stress="-0.09764247095422453 -0.0050088767722784484 -0.0018477728307955768 -0.0050088767722784484 -0.1065778000513311 0.0042200977330725635 -0.0018477728307955768 0.0042200977330725635 0.007285706795258964" pbc="T T T"
C        1.03147000      -1.73322000       1.57812000      -0.85901220       0.14273246      -0.89896606      -7.30648547       1.06063400       0.29257345      -1.87619706
C        3.55934000      -5.19421000       5.25758000      -0.42483990       0.38435179      -0.08872856      -7.39025582      -0.97917855      -0.49534648      -0.44634394
C        1.04915000       1.12553000       1.45674000      -0.01907414      -0.75476083       0.06643606      -7.37630436      -1.65512581       2.36467566       0.71714688
C        6.02653000       2.00804000       5.26509000      -0.99818473       0.03115203      -0.56023334      -7.32035723       3.02809737      -3.12771136       0.66014587
C        3.52512000      -6.06942000       1.46506000       0.93665825      -1.28563700       0.01500364      -7.35469718       2.47008384       0.25232876      -1.40869771
C        4.85161000       3.15337000      12.16948000      -0.25019302      -0.60215140      -0.09480744      -7.23836069      -1.07510794      -2.68919096      -2.38950026
C        2.17726000      -3.44090000       8.30183000       0.07220569      -0.05146802       0.06486186      -7.31327642      -1.73676423      -2.21866928       1.96968773
C        3.42145000      -4.17538000       8.34764000       0.49226305       0.42373299      -0.47016965      -7.34016315       0.91471551       1.77215051      -1.41514201
C        3.61088000       3.81346000      11.88441000       0.21607029      -0.55238456       0.98034379      -7.18708085      -3.35312507       3.56225896       2.65615593
C        4.79050000       1.23259000       5.30547000      -0.22505721       1.06515095      -0.12234995      -7.32830600       2.43253037       5.23728918      -0.47643777
C        6.04586000       1.12629000       1.34072000      -0.28735163       0.49118283       0.04054707      -7.30328009      -3.97194461       2.22759363       1.78884769
C        3.57075000       2.00306000       5.29605000       0.18008628      -0.94049382      -0.25119060      -7.31870210      -1.62077722      -0.69271975       0.46354854
C        4.77672000       0.42581000       1.49512000      -0.00673311       0.05244530      -0.13222599      -7.32073856       0.57072486      -2.17948876      -1.23546537
C        3.57897000       1.01582000      12.15195000       0.50472846      -0.74592092      -1.55796634      -7.35789491       0.87128105      -1.66393289      -0.44115305
C        4.68146000       0.82559000       8.29971000       0.08536811       0.26576272       0.18339916      -7.34010746       1.00102794       2.62558022       1.03474319
C        4.65775000       2.29879000       8.37570000      -0.46345227      -0.29936636      -0.24157031      -7.36072676       0.82871626      -0.83074932      -1.47610296
C        2.35165000       1.70615000      12.13877000      -0.97498757       0.02427205      -0.93693031      -7.33083053      -2.89372350      -0.95546525       0.71997766
C        2.34683000      -2.64767000      12.01524000       0.79742912      -0.20258792      -0.35976098      -7.29960786      -0.52210458       1.30843158       2.15214553
C        3.59247000      -3.39614000      12.11962000      -0.38294295      -0.29592196      -0.22281188      -7.31018815       2.83134292       2.54017733      -2.16290283
C        4.83442000       1.73074000      12.13356000       0.03408297      -0.73001648      -0.74377220      -7.34347859      -0.21475314      -3.27988866       1.20947182
C        5.93681000       0.14196000       8.33839000       0.50240869      -0.83371532       0.08931748      -7.34278826      -1.84671307      -1.69168191      -1.16916438
C        6.07124000      -0.90483000       5.29772000      -0.10056898       0.72438875       0.05467825      -7.34841609      -2.26853688       2.27562261      -1.23894305
C        3.54076000       5.46006000       1.36522000      -0.96623950      -0.13767177       0.94749974      -7.31410101      -0.41121317      -1.49533457       1.99984867
C        4.82493000      -0.18528000       5.26753000       0.35953201       0.31259490       0.93659937      -7.34378730      -2.75068159      -1.31666918       1.18521956
C        6.03908000      -1.74736000       1.43172000       0.76718847       0.32902601      -0.02997965      -7.31967555      -3.63094381       1.55250697      -1.53663645
C        4.66568000      -3.43092000       8.25255000       0.30078341       1.11549047      -0.09841179      -7.33790354      -2.04523182      -4.60334891       0.48325549
C        4.85562000      -1.20303000      12.13467000       0.32220648       0.82257882       0.52618844      -7.30679879      -0.96883846      -0.79094893      -1.86956830
C        3.57116000      -0.45057000      12.10627000       0.78161853       0.81070133      -0.02137502      -7.38314289       1.40999941       0.31977696       0.88224964
C        4.64303000      -2.03601000       8.24357000      -0.60758866      -0.77510478       0.55410941      -7.35211995       3.09046765       2.62519920      -0.10898161
C        4.84729000      -3.05556000       5.28387000      -0.24012580      -0.44183854       0.00675887      -7.33734030      -4.59756832       1.01284626      -0.65753701
C        2.25502000       3.28916000       1.31355000       0.24734540      -0.21287930      -0.52873524      -7.31607881       2.93263236       1.40783845       1.65498565
C        3.59185000      -2.32957000       5.28940000       0.33693823      -0.19073836      -1.24060184      -7.33172939      -2.41718153      -1.70163699       1.08237152
C        4.76112000      -3.89819000       1.39580000      -0.07449274       0.10616763      -0.66829075      -7.37244661       0.53331208      -0.48414840      -0.92143633
C        5.90952000      -1.30213000       8.26923000       0.36990706      -0.15803741       0.47491267      -7.32479071       0.13370395       1.84138810       0.58892627
C        3.45883000       0.10441000       8.32115000      -1.12318187      -0.07762831      -0.00241607      -7.35466345      -2.30209931       2.60495988      -0.85367427
C        3.56192000      -0.91643000       5.35763000      -0.19980096       0.55647643       0.36441575      -7.32349828       3.83642425       2.38185274      -1.26255689
C        4.76275000      -0.99502000       1.43501000       0.60768606      -0.01053880      -0.35196716      -7.31451700       2.81630322      -1.14043925       0.74025685
C        3.40789000       3.01007000       8.27952000       1.15033983       0.02279373       0.11291842      -7.31435247      -0.78357872       2.17399871       1.00273645
C        4.86444000      -2.66769000      11.95291000       0.29683381       0.25262603      -0.32168728      -7.24328091      -4.42294641       2.20777454       2.37968288
C        2.16414000       2.30196000       8.25698000       0.08951590       0.25535798       0.24110557      -7.35717055       2.97374015       0.65932187      -0.53073872
C        2.31443000       1.31878000       5.30359000      -0.05446226      -0.01695859      -0.23355788      -7.27099508       1.44314110      -6.34569045      -0.61756249
C        3.52985000       1.10780000       1.49056000       0.21865940      -0.39239727       0.44433252      -7.28573537      -0.51367291       6.70124171       0.94318579
C        4.80645000      -4.49101000       5.25740000       0.02183097       0.08430502       0.43931804      -7.34772160       2.11022161       3.44285424       0.38309871
C        2.31383000       3.12342000      12.06207000       0.04281146      -0.06369996       0.73651671      -7.21260117       6.21163196      -1.79110425      -1.69206589
C        2.29700000       0.43574000       1.57036000       0.02771185      -0.21981777       0.30809039      -7.31019587      -0.17709360      -3.62491935      -0.94815307
C        2.20191000       0.85545000       8.25849000      -0.99473675       0.87448162      -0.62407525      -7.33162314      -1.35092497      -1.31215169       1.29235233
C        3.62283000      -4.82616000      12.09752000       0.52301046       0.21010222      -0.09114129      -7.25338064      -4.51546293       1.83250251       1.51894792
C        0.97503000       0.14184000       8.43447000      -0.69558953       0.51636265      -0.85767876      -7.26793828      -2.71441240      -0.18897886      -2.32410739
C        1.08077000      -0.86717000       5.34894000      -0.78333280      -0.03482548       0.19969117      -7.26301899       0.78539691      -1.61627206      -2.53429289
C        2.30679000      -0.99131000       1.49585000       0.09159024       0.11391162      -0.11369600      -7.32141221      -2.02888115      -0.75379938       1.30689500
C        7.30159000      -0.15088000       5.23543000       0.07532776      -0.44763544       0.19178056      -7.36439520       1.60051074      -1.64832032       1.27121703
C        1.09957000       0.95987000      12.18754000      -0.21822753      -0.18645247      -0.67895222      -7.29424156      -0.48574693      -1.44512751      -1.59927778
C        3.50054000       2.59477000       1.50781000      -0.08423464      -0.00165093      -0.25293414      -7.29701773       1.65960519      -4.54151661      -1.32302968
C        6.04873000      -2.33507000       5.19583000      -0.01455935       0.08598256      -0.17013926      -7.31913348       4.99796404      -0.08116776       1.28254280
C        4.76517000       3.28608000       1.48794000       0.86853344      -0.89808625      -0.38710385      -7.35330928      -0.72758956       4.67114775       1.04603735
C        2.34459000      -0.18061000       5.25863000      -0.13480638      -0.11144569       0.11021143      -7.28248248      -3.29371016       2.27143027       1.55596217
C        3.53948000      -1.69480000       1.44696000      -0.30969159      -0.06079892       1.10613529      -7.34303494      -1.05249168      -2.79103028      -0.79547502
C        2.32285000      -1.17052000      12.11595000       0.17741853       0.60378805      -0.09016741      -7.30389400       0.96111766      -3.69347338      -1.69980087
C        3.42519000      -1.31180000       8.31236000       0.13430293      -0.21943874       0.54178612      -7.34179867      -0.48805580      -1.10479408       0.97761651
C        1.06699000      -0.49455000      11.99509000      -0.48006283       0.45532941       1.20834743      -7.28179772       2.41312886       2.90374276       1.97487657
C        2.16508000      -2.02585000       8.47808000      -0.15820281       0.51068992       0.15693978      -7.29874601       1.40852702      -0.17970072      -2.21799641
C        2.31344000      -3.04861000       5.32982000      -0.02889030       0.02082062      -0.06087686      -7.30739984       0.17369176       1.61968875      -1.81260144
C        3.51891000      -3.17247000       1.34306000       0.29763806      -0.04900235      -0.50701791      -7.35339516      -0.33302779       2.68834041       1.15997271
C        4.83387000       4.17442000       5.12874000      -0.19198991       0.84432601       0.46582758      -7.24361116      -1.46566762      -1.07232407       3.01209639
C        2.26301000      -3.86670000       1.43208000      -0.18090229       0.51830744       0.34875702      -7.31384138       2.45868854      -5.14757019      -1.31208592
C        3.56184000       5.26185000      12.02559000       0.92001454      -0.15298527      -0.20105075      -7.28958816       4.26289553       0.33060988      -1.75919047
C        0.93956000      -1.31160000       8.33640000      -0.13159427       0.74763655       0.04522614      -7.29847968      -0.96094244       3.29936802       1.99013618
C        6.09968000      -0.49767000      12.05043000      -0.32046378      -0.60465184       0.76994656      -7.30866864      -4.96926091       0.44359573       1.28388065
C        3.38529000       4.49150000       8.36259000       0.48018971      -0.66965736       0.28903106      -7.28963221       3.48048316      -5.52262723      -1.09931156
C        3.58716000       3.44361000       5.28613000      -0.25751193      -0.06955772      -0.04887412      -7.30268954      -1.01467626      -0.14372565      -1.84992711
C        3.44024000      -5.61439000       8.27667000      -0.20207871       0.25968770       0.69186960      -7.36161653       0.39734112       0.05073550       1.85576516
C        6.06916000       0.95110000      12.16803000       0.11492943      -0.53679270       0.54931112      -7.31770122       4.45967248       0.86026159      -1.16392916
72
Lattice="3.73972251 -6.47739002 0.0 3.73972251 6.47739002 0.0 0.0 0.0 13.55673629" Properties=species:S:1:pos:R:3:momenta:R:3:energies:R:1:forces:R:3 virial="-52.19425634320792 -1.7902606530774028 1.0785041542489338 -1.7902606530774028 -54.34864107265846 0.23658943927722223 1.0785041542489338 0.23658943927722223 5.523593140712213" config_type=Graphite energy=-528.0704845545032 free_energy=-528.0704845545032 stress="-0.10700984752751923 0.008388970376556504 0.0005441355654204978 0.008388970376556504 -0.0984850760918773 -0.00161158470719543 0.0005441355654204978 -0.00161158470719543 0.002956208736125588" pbc="T T T"
C        1.08803047      -1.88230285       1.25355615       0.09428578      -0.48278736       0.43646785      -7.25232506       1.63175313       5.88887445       0.75854443
C        3.42111412      -5.10979425       5.28022557      -0.40697279       0.22596654       1.51543270      -7.36774336      -1.58915290       0.08538174      -0.02795771
C        1.06534062       1.04211076       1.38588268      -1.10381610       0.01334205      -0.99680061      -7.33439431       3.80385977      -1.69930066       0.16784070
C        5.89763129       2.07026029       5.24860418       0.63201297      -0.17296941      -0.71239003      -7.35544276       3.85220658       1.36527610       0.31812950
C        3.60376799      -6.16769531       1.46018502       1.58644492       0.25572583      -0.26356202      -7.37980423      -2.18805537       2.09609612       0.09459855
C        4.98742980       3.05225603      12.10430709       1.67149538      -0.28644403      -0.25586029      -7.36726599      -4.32682888       2.02881061      -0.94380257
C        2.09247266      -3.37534685       8.29319883      -0.56848162      -0.43477721       0.42062233      -7.32190025       5.07698342       0.12275785       0.60906229
C        3.38746279      -4.09422262       8.37615725       0.17203699       1.33126920       0.44016146      -7.34696542      -1.20267655       0.36862925      -0.28165198
C        3.70075394       3.77514253      12.10954824      -0.01111544      -0.30222143      -0.70178952      -7.31069746      -1.54354534       0.06029784       0.67449389
C        4.68184808       1.36389540       5.23889258       0.20933472       2.05368404       0.88826873      -7.35955318      -1.14615545      -1.24039255       0.38566149
C        6.09079410       1.04760634       1.45661345      -0.23857273       0.11807277      -0.43496188      -7.34202085       0.45400657      -2.33664765       0.18908167
C        3.44908190       2.08957831       5.23866292      -0.83568035      -0.18109153      -0.73897127      -7.38125897      -2.23895031       0.61442649       0.22605875
C        4.89038563       0.32589691       1.35446358       0.93374163       0.07221757       0.77292268      -7.34673029      -4.56848854       0.08981572       0.04615078
C        3.73441572       0.85620317      12.02298474       0.05690368       0.03222634       2.96755544      -7.28821229      -5.58759260       5.67450468      -0.23852602
C        4.63987658       0.97095378       8.36735644       0.12238575      -1.08355247      -0.73637656      -7.35077020       3.06240062      -0.67249722       0.30252019
C        4.63802486       2.39598162       8.36891823       0.84162076      -1.30587694       0.78088411      -7.32915699      -3.26269592       0.37420588      -0.34419402
C        2.43985995       1.60003308      12.05414723      -0.62589801       0.95765855      -0.21651937      -7.30913199       1.85810989      -0.00731177       0.77363162
C        2.46591251      -2.67623780      12.02049253       0.67877181       1.21214578       0.12874506      -7.23576620       3.10943548      -4.77303364       1.55177130
C        3.70366499      -3.46078847      12.15519315      -0.41937187       1.57614438       0.95165812      -7.21045687      -1.92242167       3.79216261      -2.09915892
C        4.97314590       1.62444856      11.98367631       1.23993507      -0.00490766      -0.30886254      -7.30905846      -0.36171379      -2.95123205       0.82145636
C        5.93956940       0.25691596       8.39472283      -0.44399495      -0.71021096       0.29047222      -7.31718844      -5.86759412      -1.76791529      -0.11390769
C        5.95022471      -0.79940374       5.27210153       0.40319479      -0.10363514       0.32398676      -7.37170887      -2.92904437       1.04271017       0.08331217
C        3.60427514       5.35137153       1.48192998      -0.42855323       0.00444424       0.06108502      -7.30889653       1.21272785      -4.42021761      -0.83015007
C        4.67672379      -0.10889016       5.31634421      -1.20692026      -0.91940769      -1.26263844      -7.34348896       0.52076747       3.37820603      -0.70230427
C        6.11656803      -1.89344275       1.52169077      -0.98179721      -0.06471997       0.30295241      -7.24083222      -4.37328228       5.79530429      -0.31508075
C        4.61612873      -3.37697533       8.43557046      -0.46945988      -0.71703338      -1.19287128      -7.37894556       1.07773885      -0.32477992       0.55734910
C        4.90330397      -1.25814954      12.06192746       0.21324468      -0.10022130      -0.07582989      -7.34208960      -0.20913225      -0.14194351      -0.80279095
C        3.68072383      -0.55005984      12.03404589       0.01831373      -0.18789972      -0.56437844      -7.26163152       5.48090905      -1.11291604       0.29032918
C        4.61435679      -1.94220129       8.44807788       0.28940303       1.10835344       1.31351162      -7.38620580       0.68245627       0.63753669      -0.60785994
C        4.70364491      -2.97966973       5.32883151      -0.98947682      -1.01508771       1.26537217      -7.29889634      -3.80948234       3.67807444      -0.89846290
C        2.33368809       3.17616411       1.51027004      -0.83056369      -1.61548091       0.27931494      -7.35910375       2.03932813       1.21040067       0.05247896
C        3.42644734      -2.24638006       5.16383503      -0.47610456       0.47187291      -0.51747903      -7.31194106       1.30425433      -0.92361652       1.57222113
C        4.81807862      -4.00496251       1.48648913       0.82751414       0.18636103       1.54153157      -7.41614339      -0.02359275      -0.21856632      -0.30502438
C        5.88391904      -1.20424947       8.39647849       0.08615178       0.48483869      -1.52269231      -7.34439104       1.48299609       1.17534774       0.43550469
C        3.40936529       0.24536120       8.38936898      -1.16126985       1.26827132       1.23375425      -7.37068819      -0.31322653      -1.56757897      -0.37905642
C        3.42107335      -0.80377972       5.23683956       0.97308465      -0.71077603       0.77869550      -7.38375050       2.01211806      -0.78097422      -0.45714921
C        4.85869612      -1.11745393       1.39814910       0.23155615      -0.68496489      -1.56196126      -7.29587210       0.68148445      -3.00347960       1.21678662
C        3.37183074       3.11682584       8.39897261       0.06781273       0.03979427      -0.89602980      -7.34109549       1.12925269      -0.04384418       0.74635122
C        4.91485547      -2.69525623      12.06870972      -0.06612554      -0.44140007      -0.68113935      -7.30797678       1.57509109      -2.20470930       1.67662945
C        2.14744248       2.37634223       8.49670259       0.38091907       0.35271517       1.45497622      -7.33602561       0.88343119       1.74417217      -0.91231930
C        2.18282904       1.37804384       5.23997581       0.05053291      -1.55819831       0.97198254      -7.34631461       0.94499584      -2.13096978       0.19643415
C        3.59917277       1.04467896       1.34691319       0.41624299       0.42931182      -1.09861444      -7.35459216       0.48487287      -0.00222888      -0.02230767
C        4.65750731      -4.40155369       5.36720393      -0.75758626       0.99790553      -1.29112347      -7.34817600       3.70559403       0.73249295      -0.59564622
C        2.40972240       3.07194623      12.22056854      -0.37000870      -0.07457318       0.11870246      -7.29561478       3.59021485      -2.29511649      -1.76184244
C        2.34747596       0.30710158       1.31697341      -0.90678994      -0.55413428       0.36616707      -7.38830863      -1.01094669       1.62214207      -0.07617039
C        2.19699587       0.95151904       8.38372016       1.34564769       0.52112266       0.03510510      -7.33050428      -4.46618188       0.60873842       0.54469703
C        3.68842974      -4.90235473      11.98784072      -1.04508849       0.52160146      -0.98316259      -7.35150116       1.44383946       2.32345172       1.15364604
C        0.92888883       0.25157987       8.33874201      -0.75723326       0.95975425       0.58447022      -7.33726122      -0.51902959      -2.88519531      -0.65023269
C        0.95254429      -0.76542668       5.31555271      -0.17718759       0.15133057      -0.53178572      -7.34135290       0.56833142      -1.04720064      -0.76960312
C        2.34656602      -1.11863721       1.29619994       1.25887235      -0.65156664      -0.86938463      -7.32323688      -0.59264723      -3.60696236       0.27078854
C        7.16660009      -0.03712732       5.23534850      -0.91318632       0.51463474      -1.01844184      -7.35372958       2.08109559      -3.68186306       0.58659447
C        1.22976342       0.87128018      12.01030153      -0.83383193      -0.04763736       0.81451067      -7.30001610      -5.24755780      -0.65927571      -0.07808014
C        3.57577916       2.49817141       1.41582622       0.23374579       0.44577248       0.80430330      -7.32082357       1.00064207      -3.88710153      -0.52215711
C        5.95512841      -2.21989673       5.29501145       0.96703701       1.00137340      -0.41760979      -7.37385721       0.27062052      -3.29231569       0.41993276
C        4.83592069       3.20305109       1.33209134       0.69984162      -0.96039224      -0.54052045      -7.33747063      -2.07290078      -2.29811345       0.85669873
C        2.19821753      -0.07006219       5.20787128      -0.22244834       0.62291673      -0.75087718      -7.34713784      -1.78196424       0.71705798       0.55432339
C        3.56641004      -1.85841129       1.49322949      -0.55870793       0.28572089       0.95911655      -7.31328125       2.86853711       3.38647464      -1.42192884
C        2.50240571      -1.25712153      12.08383660       0.16730987      -1.77543501       0.12692681      -7.27887509      -7.83224580      -0.48749457      -0.31562069
C        3.37836805      -1.23323896       8.35835683      -0.08584560      -0.01637214      -1.32784723      -7.38781978       0.54494705       2.21266597       0.49462215
C        1.19140867      -0.56404249      12.08300478       1.46259836      -1.56030328      -0.81204337      -7.29865710       3.85831769       1.50934748      -0.43736225
C        2.11460934      -1.94229503       8.30986197      -0.22784077       0.42930921      -0.36546278      -7.36408464      -0.30840757      -1.11670723      -0.71658658
C        2.19503158      -2.96348382       5.30415724       0.57486713       0.48399866       0.96358637      -7.34622111      -1.53905477       0.66058255      -0.85872075
C        3.57922273      -3.28306530       1.48410341       0.50602177       0.05947285      -1.28406509      -7.35863975      -1.34733036      -0.68198606       0.97981376
C        4.70747682       4.24791367       5.34382518      -0.54304516       0.86607388       0.15075957      -7.35349358      -2.38357313       0.48038504       0.28471426
C        2.32416319      -4.00999277       1.52763482      -0.00794460       0.06221481       0.71934417      -7.35597833       2.00003206       2.06549616      -1.13996353
C        3.67913404       5.19363049      12.01384090       0.49157941      -0.12383893      -0.37737174      -7.35121976       0.15145905       1.36266967       0.14759771
C        0.88674713      -1.23301895       8.23612414      -0.22039130       0.27325965       0.35140901      -7.30614944       0.39444191       4.73655667       1.16644220
C        6.12486823      -0.53701015      11.97300469       0.01694591      -0.74345679      -2.03785367      -7.34850055       3.58093842      -2.01153307       0.68616569
C        3.37364180       4.57330043       8.39055559       1.10834058      -0.39950146       0.53436436      -7.33199182       0.49677931      -3.96373132      -0.76595010
C        3.44345586       3.53117252       5.32508650      -0.92081305      -0.20851567       0.37335962      -7.35298509       2.15739368       0.34273897      -0.31753788
C        3.41334211      -5.51459652       8.38836028      -1.42906528       0.48867021       0.16454046      -7.35799211       1.10838476       0.36163881      -0.08479014
C        6.16034344       0.88625084      12.03171292       0.21144182      -0.68015687       1.16025845      -7.29917074       2.38272315      -0.10667845      -1.09853726
72
Lattice="3.73972251 -6.47739002 0.0 3.73972251 6.47739002 0.0 0.0 0.0 13.55673629" Properties=species:S:1:pos:R:3:momenta:R:3:energies:R:1:forces:R:3 virial="-52.19425634320792 -1.7902606530774028 1.0785041542489338 -1.7902606530774028 -54.34864107265846 0.23658943927722223 1.0785041542489338 0.23658943927722223 5.523593140712213" config_type=Graphite energy=-522.5307743072464 free_energy=-522.5307743072464 stress="-0.10508610889103913 -0.011077541802205272 0.0070681060434892124 -0.011077541802205272 -0.11006747607837529 -0.006161828559792092 0.0070681060434892124 -0.006161828559792092 0.01047914039970753" pbc="T T T"
C        1.19609852      -2.06137594       1.48018413      -0.90521499       0.28635955       0.68408342      -7.25383986       5.04522998       2.21067570       1.84924477
C        3.19486350      -4.98026143       5.29055371      -1.03439933       0.84005607       0.47757370      -7.28038778      -1.17636673       3.52929284       0.35218739
C        1.19254865       0.79383653       1.40347934       0.59509420      -0.56234508       0.45276995      -7.19633006       2.06926452       7.91429380      -1.60514461
C        5.68044638       2.19401185       5.34205431      -0.88342825      -0.14518945      -0.87546396      -7.27329035       1.09280112       4.18268179      -1.19423505
C        3.71326344      -6.35620472       1.19812483       0.81564461      -2.15319107       0.32707718      -7.18648009      -0.75940778      -3.55377095       3.40721421
C        5.12475509       2.94937777      11.89859286      -1.47106859      -1.21929323       0.64360508      -7.27222674       1.56447297       0.16566246       1.70556074
C        2.03590554      -3.19323500       8.68195564      -1.24113758       0.63651724      -0.17086617      -7.13486690       4.02474596      -3.13803760      -3.40238972
C        3.32842298      -3.92949529       8.38739600       1.26540558      -0.40428646       0.24082888      -7.19702323      -0.27041309       0.91015097       2.76528766
C        3.86872676       3.65722730      12.05200850       0.84552440       0.12395483       0.06161631      -7.31002885      -2.31078584      -0.97053295      -1.99692508
C        4.43937723       1.51339009       5.28168673      -2.05780614       1.46029382       1.27992312      -7.35062189       1.74255177      -2.22738896       0.93208370
C        6.19345540       0.83576343       1.43086406      -0.22870975      -0.58428887      -0.30981613      -7.28925991      -0.22706943       2.41339967      -2.61773581
C        3.23814504       2.24121343       5.35846322       0.80440228      -1.86438066      -0.20946277      -7.24505950      -5.33185294       1.18418431      -1.80576207
C        4.92426075       0.12296327       1.41871126       0.23216261       0.10757716       1.53865917      -7.31916285       2.16192336      -3.92043911       0.53202524
C        3.87444561       0.79883145      12.07434843      -0.23642700       1.30109827      -0.32972906      -7.30202715       2.30301201       0.05430836      -0.62050733
C        4.61035183       1.11793221       8.50543766       0.83545121      -0.27808090      -0.24618369      -7.31704960      -0.21100218      -1.64428725      -1.12966148
C        4.56947197       2.52131976       8.49023354      -0.32660965      -0.57914700       0.69544022      -7.25678582      -1.20820456       5.55663577       1.09788946
C        2.64999520       1.50727788      11.91651332       1.15980741      -1.05910495      -2.03662646      -7.33549958      -1.23201931      -2.38176288      -0.32568651
C        2.64444285      -2.83720284      12.00969050      -0.99505077       0.01581653       0.46191378      -7.22351580      -4.72899155      -2.57655028      -1.49142569