125
Lattice="9.158616 0.0 0.0 0.0 9.158616 0.0 0.0 0.0 9.158616" Properties=species:S:1:pos:R:3:momenta:R:3:energies:R:1:forces:R:3 virial="222.64807906606316 21.561432674983322 57.08570699995725 21.561432674983322 247.82551996948678 -13.553549356442273 57.08570699995725 -13.553549356442273 156.87636103904026" config_type=Amorphous_Bulk energy=-582.4773054935275 free_energy=-582.4773054935275 stress="-0.8704502864106356 -0.08299731973715568 -0.12028547198041922 -0.08299731973715568 -0.9557938885287719 0.117904500221099 -0.12028547198041922 0.117904500221099 -0.8629589603421609" pbc="T T T"
C        5.58247000       1.38811000       3.89455000      -0.56067716      -0.04148264       0.07359519      -3.74808721       3.37806436      14.61137578      -8.32209412
C        6.92753000       7.40436000       2.67810000       0.47104859       0.31102757       0.62064727      -3.88444890      -8.21121638      -3.74963537      -0.00414400
C        4.44119000       8.10563000       2.66666000      -0.55586711       0.58977577       0.29095436      -3.46938630       3.94157996      -3.69443426      -3.71841280
C        4.02085000       6.83423000       6.49947000       0.28498186       0.55850821       0.92832251      -5.51774108      -8.58977869       8.48917844      -6.05379652
C        3.67274000       2.91318000       8.49589000      -0.77238759       1.33777003      -0.18031026      -6.36886364      -7.77186103       9.72046207      19.49871503
C        2.92425000       8.27138000       4.67771000       0.43702881      -0.17579133      -0.67799337      -5.36784060       2.99582536       3.90497067       0.42278655
C        4.66908000       4.57218000       6.57384000      -0.37968826       0.53768133      -0.08296797      -6.15830174       1.78008485      21.84032392      -1.38315801
C        1.49203000       0.34617000       7.70697000      -0.03795152       0.19137825      -0.71457493      -5.02565645       0.54613839       2.77131424       0.39586732
C        6.21724000       5.92604000       5.46028000      -0.28978782       0.13630863       0.36937263      -0.63971101      18.73157857       3.24923120      36.15168821
C        0.67334000       7.37167000       4.79648000       0.55124058       0.33829644      -0.44381184      -6.11879347       1.97048653      -0.61450321      -3.45813332
C        7.10130000       6.39972000       7.00379000      -0.01732236      -0.85531791      -0.09268865      -3.50547244      -8.76438989      -1.33133427      -2.27697756
C        8.77819000       6.71229000       3.94444000       0.09622228       0.08241471       0.20648267      -4.49329200      15.43345875     -21.51522914      20.05215874
C        5.72462000       0.99857000       6.76827000       0.46588073       0.15171425      -0.52149268      -4.16045288      -1.35593158     -27.30431171      10.41159604
C        3.19083000       7.84614000       7.18809000      -0.89045019      -0.82576866      -0.64358049      -3.89410003      -7.99350708       0.62642265      11.22751951
C        2.61452000       0.53908000       1.83632000       0.49648194       0.80504765      -0.52773753      -5.76386223       3.84150330       3.86706402       4.62243405
C        0.61838000       6.91820000       0.28116000       0.36032338      -0.19560578       0.31186678      -4.65098618       1.40460131       4.23263452       4.67457355
C        6.54714000       6.12592000       8.63798000      -0.59144976      -0.16127974      -0.47463423      -0.54981250     -27.23426710     -10.51545452      -5.62147901
C        4.07047000       3.30598000       4.26506000      -0.42744042      -0.26747039       0.31611413      -5.40389073      10.51509152      12.37514424       7.93503684
C        0.43927000       0.74159000       6.62460000       0.01552623       0.39192499       0.30817568      -4.14631269       6.53040322      -6.20900084     -21.41360824
C        7.50518000       3.53616000       5.71763000       0.67628532      -0.39423989       0.34829729      -6.90901490       5.66555568      -3.28855731      -4.12773399
C        1.59114000       8.79427000       1.56659000       1.33992398       0.89647842       0.24581217      -6.68789675      -4.37260707       1.38435295      -1.00562297
C        5.34030000       8.75631000       0.13178000       1.37846383      -0.70449365      -0.29563195      -3.75219778       1.90548576       4.30614897       3.95005558
C        2.46939000       5.09824000       1.01741000      -0.58671459      -0.68270459       0.19946739      -4.60750971      -2.46788132      -6.12423171     -11.75326415
C        7.72598000       5.11878000       7.36111000       0.53359513      -0.26603759      -0.18391815      -4.71515608      14.02684218      -9.63563048     -18.72524922
C        8.12747000       5.90664000       5.00580000      -0.00346577      -0.52897994      -0.09257471      -4.26019967       9.32376590      -0.33673323      -5.54459764
C        4.84792000       0.43038000       4.64963000      -0.24731247       0.03447766      -1.09827127      -3.88261776      -4.44607747      -8.31165328       0.60463820
C        8.61530000       1.61091000       1.73760000      -0.27869043       0.31495098       0.84336011      -7.09155882      -3.06020531      -3.25321736      -2.24983003
C        1.29458000       4.58923000       3.19748000      -0.12996214      -0.01585622       0.04456738      -6.44358743      20.12005324       4.48040408      12.07884862
C        3.29766000       2.04018000       7.41873000       0.31757751      -0.55256342      -0.12539846      -3.08515898       8.46995034      -3.18380131       9.45946584
C        6.09659000       6.48886000       3.55787000       0.01249460      -0.12760347      -0.46084801      -2.06041808       3.83287845      27.81387446     -17.40782069
C        5.25916000       5.25026000       5.24526000       0.54860897      -0.07235296      -0.03479614      -2.30339595     -47.27959493     -22.40988329      22.43272896
C        4.70013000       0.98345000       8.17798000       0.39985811      -0.69462402       0.56724718      -4.34998130       0.77843254       4.61305942     -12.21491284
C        3.99026000       8.81798000       3.83350000       0.11870716       0.35721711       0.29973964      -6.83416075      -5.47268411       8.72973516      -1.97112689
C        8.13142000       0.58994000       8.64030000       0.35445041       0.26937480      -0.20141131      -6.51563923       4.59806975       5.32054306       1.51909833
C        1.14890000       6.97352000       7.09991000      -0.35414660       0.67845381      -0.18945913      -5.26096990      -3.39791096      -1.74145326       4.99527540
C        3.04273000       8.04481000       8.77288000       0.49267728       0.10691769      -0.45139880      -7.04640724      -0.85209387      -5.70143664      -4.36725208
C        7.02655000       3.88852000       2.79297000      -0.80333449      -0.94503669       0.10350260      -3.52564158       5.25633290      -2.64858330       4.84671211
C        0.94744000       3.84343000       4.50119000       0.39400179      -1.13184915       0.33618312      -5.96493890       3.04980080      -5.52455520      -4.54773376
C        5.25716000       5.31159000       1.43252000      -0.11528094      -0.34964712      -0.50645402      -5.47248234       5.15606512      -6.82178386       6.17006470
C        8.46424000       1.55772000       6.28415000       0.38495960      -0.31896971      -0.28029295      -3.07378967     -17.00249598     -27.37725578      13.51315731
C        1.81343000       8.12555000       7.01883000      -0.01476568      -0.17334211      -0.39156223      -3.27154113      -5.19585425      -0.04735740      10.09615166
C        4.01567000       2.62402000       6.46825000      -0.46571099       0.13223884       0.66647020      -2.29058302      36.07807259     -24.71731801     -18.10250410
C        7.01065000       3.81096000       1.34604000       0.31758776       0.08820109      -0.73249288      -1.76871520       8.79259359      -0.55580511     -12.86465001
C        3.10590000       6.88618000       5.09486000      -0.65419876       0.16784338      -0.53723766      -6.10850941      14.19050879     -19.08020135      21.02221841
C        8.63742000       4.49581000       2.37202000      -0.83735879       0.02610807      -1.38961300      -4.34493660      -9.45309908       0.50517848      -1.18071108
C        3.26063000       9.02065000       6.18678000      -0.29990215      -0.17420159      -0.34396697      -5.42093844       9.27520873       7.17897915      -8.22151709
C        5.50375000       2.07910000       6.17147000       0.35844323       0.37471813      -0.09735181      -4.43859123      -5.46222117      -1.86753267     -20.76329823
C        7.89849000       7.64953000       3.85045000      -0.45553750       0.53835417       0.23860126      -2.10768138     -11.27551998      14.67605831      -2.68193980
C        8.00465000       8.39561000       8.72072000       0.08297616       0.37137426       0.55450292      -2.90457608       3.95441183     -14.34866503     -14.60218755
C        5.08009000       3.39245000       8.62252000       0.81017149       0.19285782      -0.97362078      -6.76815068       3.69649717      -4.88666502      -0.71528266
C        3.21345000       0.96270000       3.13047000      -0.49049622       0.30712708      -0.26275578      -4.98029418      -1.57991518     -19.95469407      -4.67725755
C        8.26055000       7.92667000       6.35406000      -0.33663853      -0.90619195      -0.06280602      -0.43450064     -21.79471149      13.85638269     -17.64604579
C        0.55213000       4.86364000       8.87382000       1.44493050       0.17141689       1.15357811      -5.79419883      -3.81936028      -3.86084489      -3.63644622
C        2.80612000       2.10105000       3.56976000      -0.00393836      -0.60403568       0.06206902      -4.02279841     -10.56061156       2.66664091       8.82963392
C        5.79755000       3.81019000       0.77734000       0.45022620       0.15299693      -0.67240428      -3.74610179     -19.99945068       7.47945211      -7.46202344
C        3.14332000       2.50169000       0.63375000       0.18308122      -0.54285332      -0.27832870      -5.70340318       0.67881729      -4.43463990       3.18344488
C        6.57028000       2.90379000       6.75798000       0.02375778       0.22271723       0.97648125      -5.37487231       4.87663038      18.97739263      -5.89060220
C        6.09848000       7.23713000       5.26385000      -0.18393715      -0.68952270       0.49242443      -4.10569969      -7.88685955      12.61311093      -0.67884533
C        5.63682000       2.81743000       4.71137000      -1.15217273      -0.88116499       0.81547940      -6.25312620      -2.84549397      -5.31039077      -5.12099890
C        1.06773000       4.16089000       5.92931000      -0.53839523       0.30965594       1.25347228      -4.52990404     -25.23315143      -1.04296840     -16.92476250
C        0.34082000       4.05396000       1.12427000      -0.29986850      -0.07849642      -0.22482134      -5.80939580       3.50618759       1.50525528       4.75032237
C        2.67876000       1.10611000       6.74468000       0.43859034       0.80416932      -0.07909495      -4.74910960     -34.73866772     -29.44535206      -1.16677947
C        4.48645000       5.05346000       4.12368000      -0.50850436       0.93374491      -0.41874119      -6.31665895      -0.53742350      -2.84473541      -5.17473972
C        3.00099000       4.28164000       6.63537000       0.92332786      -0.35380859       0.66351443      -5.53296121       9.51297932      26.56920258       5.31398956
C        2.63581000       5.32471000       8.91325000      -0.73701160      -0.18683411      -0.72369897      -5.80971356      -4.08406865       1.65988725     -12.77164143
C        1.17029000       6.11276000       8.51300000      -0.55120146       0.33003343       0.66821974      -5.95733460       6.57340738      -4.01334225      -5.37597359
C        5.01007000       7.69308000       6.17631000       0.54567671       0.04305181       0.13877262      -5.39002090      23.83247906       1.29965088     -13.55273239
C        7.27152000       6.95201000       9.11171000      -0.33342762      -0.89905460      -0.17593418      -1.79992247      15.86996889      31.39191412      10.39261915
C        8.23663000       4.83613000       5.92525000      -0.07248181       1.17303263       0.42519636      -5.21311208       0.19691385      -3.59631908       8.16191196
C        3.40080000       5.95064000       4.02496000      -0.05713042      -1.04014929      -0.25749976      -5.79157721       4.23640475      -4.68729902       4.77017119
C        6.95820000       2.34318000       8.03841000      -0.01343241      -0.28189249      -0.64826697      -6.20487933       2.52498710       0.11636468       3.96436515
C        2.97106000       6.16694000       1.80504000      -0.53225381      -0.51533154      -0.05105067      -5.93082039      -0.10535463       4.44342430       0.00570472
C        1.75475000       3.99273000       1.75538000      -0.44408908       0.39261836       0.33121550      -6.40267247      -0.91172469       4.61972588       2.58974756
C        7.48980000       1.16912000       7.46674000      -1.17827496       0.07287824      -0.26029130      -5.49339547      -1.74823365      -6.79338550      -3.89400643
C        0.52480000       1.13787000       8.62610000      -0.68370855       0.50544642       0.50637002      -5.16923260      -2.42065480       1.39327597      15.68440292
C        1.59408000       8.03459000       0.11518000       0.94326109      -0.07801685      -0.17419809      -5.42475712      -0.85390552       7.47176104       4.51071549
C        6.50958000       7.70252000       0.98406000      -0.68781445       0.31456709      -0.67488879      -2.69870835      21.33896309      -1.59625466      -1.15116425
C        4.34775000       6.05808000       7.48995000      -0.26072220       0.18979914       0.15495784      -4.04262862       2.56013133     -11.59869808       6.48408110
C        6.87853000       3.66955000       4.32753000       1.13061403      -0.33656083       0.09699705      -5.53956652      -4.52557523       1.69226178       3.27680293
C        6.07022000       1.65158000       2.31278000      -0.31156212       0.53686091       1.61222316      -5.72339850      -0.32349563      -2.86285848       4.59905567
C        5.25566000       7.66009000       1.22052000      -0.18664418       0.07662619      -0.12190923      -3.24608476     -26.72134230      -2.69475580       9.15205423
C        5.54849000       3.76902000       7.22207000       0.34831964       0.88168554       0.07957595      -4.66957001       8.69939515      28.92456882      26.63712611
C        5.56004000       2.97149000       2.10766000       0.62377414       0.18073764       0.16782931      -3.58994954     -18.61787329      -0.48793360       9.32334289
C        0.07814000       2.63636000       0.97566000       1.22305414       1.26399164       0.18471283      -4.22736426      -3.69702129       0.07832849       1.53131853
C        0.67156000       2.95533000       6.55130000       0.95325164       0.50890793      -0.27675747      -4.78301457       9.64310738       9.19741846       6.15337638
C        8.03265000       3.05166000       8.90746000       0.78936049       1.36405869       0.77744319      -5.09146973      -3.17874415       3.63384002      -3.49313341
C        1.59434000       6.29057000       5.47696000       0.07591424      -0.08040489       0.20319845      -4.63419811       2.55452334      13.42879168      -0.55130020
C        4.44071000       6.34052000       1.02616000       0.02911113      -0.74619852      -0.09505115      -6.50162278      -0.23923321       6.26022551       2.34803318
C        1.83045000       5.23431000       6.24010000      -0.59392371      -0.08430168       0.78377838      -3.67754540       8.52986016     -20.67095439       3.21964039
C        5.51576000       5.44784000       3.03629000       0.88905411      -0.15649848       0.34690077      -3.68852948     -11.31144394     -16.62808029     -10.77106026
C        3.19902000       1.11753000       0.82971000      -0.07582670      -0.16439908      -0.29869302      -5.96479070       2.18207220      -5.32448870      -7.09189857
C        0.27861000       8.60424000       5.78506000      -0.86952479       0.23347222      -0.39450759      -4.91598875      -0.28925188      16.70510955     -23.97950643
C        7.01193000       8.35302000       4.98812000       0.82932587      -0.45266153      -0.25971527      -4.60282382      11.05776273     -10.65863386       5.10154087
C        1.40643000       2.32639000       4.39325000      -0.44845547      -0.32238698       0.93376788      -6.51017618       5.61754220       0.59308601      -4.48857230
C        0.67255000       6.61316000       1.81354000      -0.18609737      -0.56698048       0.44509354      -5.87503156      -1.78549957       4.35821764      -1.40741824
C        8.36662000       0.43699000       4.89456000       0.27975617       0.58387805      -0.10171781      -4.04181819       2.15847535      -3.08881070       5.54794126
C        0.78247000       1.24119000       3.58075000      -0.71317533      -0.16645718       0.23812418      -4.36513141      -6.07247572      -0.63128410       0.95361967
C        2.76239000       2.97832000       2.09518000       0.66603123       0.75530367       0.86042139      -3.70535991     -14.71280144       2.16749761     -19.51840638
C        6.90930000       5.39838000       4.17507000      -0.95797452       0.29121336      -0.13041176      -3.24311329      28.91851718      -5.21640743     -10.74306599
C        8.71867000       7.75258000       2.31047000      -0.23141880       0.24684518       0.48842703      -3.56488307       4.92150291       8.50611219     -12.32583368
C        3.69732000       6.51242000       9.00751000      -0.21396379       0.07314981      -0.45718566      -6.24801742      -0.64461629      -2.93131024     -10.73277662
C        2.64269000       3.95861000       8.00645000      -1.05168742      -0.94955350       0.99160652      -6.49198885       0.04187611       2.70756850       3.41180173
C        0.40862000       0.59838000       2.28654000       1.14650518      -0.11529241      -0.86207184      -5.39131138       3.44521589      -1.00859195      -0.46042550
C        0.99583000       3.69044000       8.04091000       0.88969430       0.32707163       0.40687084      -5.52798536      10.29023792      -0.41824314      -5.58280687
C        4.78316000       9.10276000       5.97727000      -0.13504376      -0.16077249      -0.00902245      -6.21308097      -0.27552342       2.37601377       6.82221513
C        7.60887000       0.79537000       0.92731000      -0.10692392       0.28543240      -0.01167114      -6.09733476      -1.47627011       5.25371398      -3.72346669
C        3.78774000       0.11210000       9.03739000       0.29689464      -0.07995405      -0.25127188      -5.57278591      -0.16673460       1.50102963       3.76368684
C        0.44759000       2.64660000       8.70112000       0.15306006       0.23111997      -0.27315757      -4.07981784      -1.48685757      -9.41411005       0.58892199
C        1.80052000       7.72177000       3.81619000       0.41256424      -0.03960268       0.17860965      -4.99356022     -17.88315030      13.58409928     -18.48439089
C        1.92620000       7.52714000       2.20521000       0.23367288      -0.36916280       0.88250277      -6.14259141      -1.63056956      -5.77999968       6.62661989
C        3.78938000       2.98318000       2.90668000      -1.41582542      -0.86939008      -1.00726844      -0.52165569      29.96303203       5.60226683      -5.13794505
C        7.62086000       8.67193000       1.51840000      -0.00179361       0.40958026       0.21054563      -3.56285207      -0.41040853       1.30679500      10.86516974
C        2.58268000       5.48943000       3.05359000      -0.75109138      -0.66355680       0.39892093      -5.14312451      -1.57218329       6.97837921      21.76173021
C        1.40213000       1.73459000       5.69653000      -0.07396260      -0.90373887       0.18417084      -4.99925005       3.13954426      -0.43873383       9.16940868
C        8.98482000       7.29455000       7.12049000      -0.62754133      -0.86731192      -0.81620714      -0.43858456       1.25732912     -26.21948187      30.64025357
C        3.40097000       3.18671000       5.52660000      -0.06782250      -0.10446284      -0.84902328      -2.28328910     -12.26207721       7.17665161     -11.66033921
C        7.58296000       1.99959000       2.78450000       1.31980606      -0.28465218       0.56386920      -5.40442251       2.13810032      -0.17530244       1.43326611
C        8.44935000       1.66866000       4.09195000       0.37161327       0.38200967      -0.63886271      -5.71860204       3.39403769       2.72893356      -4.13314664
C        0.21993000       5.66866000       2.91086000       0.27544188       0.46141720      -1.41524625      -5.48158954      -0.59055461       3.42452459      -0.51989230
C        5.94833000       1.19564000       0.82983000      -0.38698340       1.63414483       0.02977002      -5.35823281       5.55778920      -8.91878692       3.20013881
C        6.47102000       0.42157000       4.58378000       0.17488016      -0.72741546      -0.95789310      -1.99742405      -0.75227644       3.50056623      -0.74639122
C        7.44305000       5.25126000       0.89786000      -1.11260792      -0.53929862       0.13196658      -3.37968137       0.70881042      -8.48881947      -4.51621017
C        8.61720000       2.47891000       5.42090000       0.21973285       0.40197664       0.29335022      -3.40221236      -2.35218214      19.31684053     -10.27926443
C        8.31906000       4.65973000       8.49724000      -0.66830392      -0.41324404      -0.02210332      -5.48346228      -5.73755602      -2.12024513      10.88808921
C        5.71661000       1.87791000       8.78446000       0.03925607      -0.15732340      -0.04508855      -5.56725979      -1.67144080       8.39024260      -0.96674634
125
Lattice="9.158616 0.0 0.0 0.0 9.158616 0.0 0.0 0.0 9.158616" Properties=species:S:1:pos:R:3:momenta:R:3:energies:R:1:forces:R:3 virial="222.64807906606316 21.561432674983322 57.08570699995725 21.561432674983322 247.82551996948678 -13.553549356442273 57.08570699995725 -13.553549356442273 156.87636103904026" config_type=Amorphous_Bulk energy=-772.4104404207477 free_energy=-772.4104404207477 stress="-0.26544057088059353 -0.02558547918928753 -0.0015941004523209617 -0.02558547918928753 -0.1692786065873685 0.0318802663641109 -0.0015941004523209617 0.0318802663641109 -0.23032974702774925" pbc="T T T"
C        5.80643286       1.47807468       3.79701423      -1.61161088       0.98062603      -1.98735421      -6.13242841       1.09190801       5.42809974       0.08919836
C        6.33890805       6.90606143       2.14085832      -3.69731772       2.47840096       5.28121959      -4.14663819       1.50031790      -3.74097070      11.05731457
C        4.52244477       7.84640791       3.01845941       0.73692923       3.03046874       1.37273191      -5.58954022      -1.80506017       6.18782637       9.30473455
C        4.10301721       7.02154855       6.77466437       2.28481697       0.87294066      -1.26361113      -6.69332903       2.94035717       1.27389791      -2.77183499
C        3.48443082       3.03109297       8.39303044      -0.80543088      -1.27968044       1.13176163      -6.76461960      -4.72897090      -2.40412993       4.92258053
C        2.97929885       8.16401650       4.72040356      -0.00846427      -0.37778971      -1.44920629      -5.93076244       4.60021046       4.30379065       5.35197265
C        4.37346428       4.75890809       6.70087053      -0.45625128       1.95210310      -0.31051593      -5.77164481      -2.98295440       1.71145023       4.56999699
C        1.24519250       0.31902139       7.31881050       3.57777475       1.95309053       2.10375528      -6.36725801       3.42713865       0.26926068       1.62770038
C        6.02842122       5.59278073       5.55939709      -2.50883229      -1.67541288      -1.80039652      -6.60044260       5.63984642      -2.05618341      -0.45036305
C        0.93545347       7.22318715       4.81999767       1.37288428       1.38590431      -0.67199442      -7.13288149       1.21905796       4.19991855       1.17750327
C        6.62676256       5.58429665       6.91587766       3.81377712       0.35326668       2.13805226      -5.07917570       7.06118380       9.07849309      -4.80068492
C        9.20434767       6.24252093       4.20776851      -0.77798468      -0.90645856       0.31236278      -6.79651385      -1.79567857       1.34016789       2.76154125
C        5.92765926       0.53476619       7.07022484       0.28274323       0.15013426      -1.82892506      -5.22950574      -0.01279023       1.70121048       1.24799599
C        3.13432806       8.09777464       7.17956692       3.28043422       0.36799952       0.08789590      -6.20443908       1.95262707      -0.98880660       1.96980244
C        2.94594338       0.48031756       1.94959724       2.05777586      -2.05639346       0.75775600      -5.93897061       2.86250381       4.37557821      -3.57286537
C        0.93021446       7.21130530       0.61910375       1.31394505       2.31061434      -1.86669569      -5.84540796       0.95286845       1.52794886      -5.07022332
C        6.00422891       5.86962556       8.20454834      -2.71413038      -1.12853158      -1.73752484      -5.33730856      -5.48369014      -3.48315574       0.19655657
C        4.17789640       3.11890335       3.72943733      -0.65714259      -1.51690729      -1.06650897      -6.07788217       0.29011034       1.31252679      -1.59698313
C        0.63199018       0.68527571       6.08595999      -0.39659955      -0.98140303       1.80692982      -5.68198090      -6.29199045      -0.73195151      -3.87813859
C        7.52108375       3.53449844       5.98576041      -0.85276004      -0.39915481       0.37645828      -5.22474031       2.71903324       1.54847825      -1.87361862
C        1.60351866       9.15902715       1.75727127       0.26894308      -1.35499989      -0.77844312      -6.69547885       4.84791623      -2.18347684      -1.87312970
C        5.62076594       8.76696925       0.92009959      -1.45515844      -3.37116167      -1.88220182      -6.08996310      -2.68951420      -0.27563661      -2.88977530
C        2.30083701       5.37739481       1.20385634       1.84289412       2.09194383       1.51321827      -5.29863099       0.03150438       2.45436222      -1.35347994
C        8.02493212       5.46149664       7.30806787       0.19305246      -1.45476870      -1.61500289      -6.35180097       3.91371562       1.03485413      -4.94171137
C        8.21647889       5.52281849       5.05415806      -2.36143763       3.44846206      -0.57798738      -6.09800030       3.32051860      -0.17288221      -4.83765432
C        5.56787840       0.19894421       4.47759616      -5.21884647      -1.01854764       0.20390823      -6.71699988      -7.78957645       1.90064061      -1.29744873
C        8.67164146       1.85481485       1.54714204      -1.25791355      -0.71559808       1.45526839      -6.95803959      -2.06647927      -3.19021497       0.96540937
C        1.56540855       4.76738401       3.13685764       2.65713111      -0.70329855      -0.30705905      -6.63358969      -5.00090412      -2.83577663       5.29581179
C        3.80195256       2.02657094       7.35258837      -2.38543539       3.26626358      -1.55933187      -7.11600560      -2.06175949      -5.12880768      -1.30855232
C        5.34892299       6.82173699       3.59584848       0.68205643      -1.39368825      -0.91068354      -6.58931156      -2.01450742      -2.32421447      -6.66458595
C        5.16107177       4.56402432       5.45341690      -1.34677452       0.49196470       4.49773330      -5.65604891     -15.99290022      -8.83347862      11.57682020
C        4.88513341       1.12581105       7.94955687      -4.26764904       0.92134877       0.13244490      -6.66361948       0.83166483      -2.66487943       1.48826761
C        4.01608635       8.95713652       3.91281694      -2.94823826       0.46687067       2.41883906      -6.63704861       7.30977208     -10.41432497       0.56132539
C        8.33983669       0.29764783       8.47234877      -2.45910098       1.55144953      -0.55246211      -7.72814541      -2.32604515       2.06059029       2.88059134
C        0.78235689       6.75965242       7.35648661      -0.79686229      -1.61332939       2.10166858      -6.07686679       5.65194804       6.05043312      -1.34606062
C        3.29694723       8.19189218       8.70334126      -2.26332447      -2.64074612       1.24730714      -7.00793019       0.17924240      -1.70444040       0.53578772
C        7.40424225       3.96524012       2.55008825       1.39077919       0.55059203      -2.10329624      -7.03249523       2.06157411      -5.85633241      -2.87450448
C        1.37517180       3.65658299       4.43225827      -2.17084791       0.40887261       0.91131621      -5.98442842      -2.68666639      10.48394909      -3.93018554
C        4.70280766       5.26304777       1.67107481       2.52244121      -0.24864556      -3.87687396      -6.55471189       1.47897220       2.20187534       3.58765218
C        8.21298763       1.08363241       6.00050509       0.96257961      -0.66514264       1.22968616      -6.37692537       5.10905896       2.81267738       5.19060287
C        1.67897508       8.08550837       7.29198409      -0.71503896      -3.89968735       1.29163102      -5.32438224      -1.21659303       3.03855514       4.33993161