36
Lattice="6.163743 0.0 0.0 0.0 6.163743 0.0 0.0 0.0 8.218324" Properties=species:S:1:pos:R:3:momenta:R:3:energies:R:1:forces:R:3 virial="7.324435467915814 -1.3691905013204728 1.5736151506864136 -1.3691905013204728 -10.260009212337337 7.134474633720599 1.5736151506864136 7.134474633720599 -2.2939334134585585" config_type=Amorphous_Bulk energy=-175.71446352009377 free_energy=-175.71446352009377 stress="-0.27429760302486056 0.0659879275498153 -0.16140577963317193 0.0659879275498153 -0.3611820974473938 0.1611288413567597 -0.16140577963317193 0.1611288413567597 -0.5775000669839967" pbc="T T T"
C        0.57378000       1.17009000       4.07436000       0.59153748      -0.85537474      -0.08683289      -6.17812005      -4.03067705      -0.64164556       8.55703242
C        0.89629000       4.88797000       0.07276000      -0.94156425       0.11107996       0.22866907      -6.17145139       0.92107328       1.35671887      -3.78282522
C        2.54043000       3.44895000       7.34780000       0.23053379       0.57219605       0.45397482      -5.41098192      19.47974752       3.11528919      19.33464050
C        4.84841000       2.41263000       7.22344000      -0.85177697       0.88459284       0.38992218      -5.84128074       4.16429364     -43.45133126       4.72353461
C        5.28632000       0.52287000       0.98788000      -0.14002876      -0.42258666       0.31550517      -5.09596478      -6.82120549      -9.62003778       1.43953879
C        4.07918000       0.53219000       1.98739000      -0.37147391       0.06024253      -0.27516486      -3.90908396       0.38587345       2.76306772      -1.78891874
C        0.94356000       4.03255000       5.77537000      -0.43238432       0.53239170      -0.34606614      -4.49270713      -0.83125737       5.80167504       1.76066014
C        3.03133000       5.98555000       7.72892000       0.94884567       0.33799347       0.25263289      -3.25749710       5.31659800       1.90732613      -5.26454631
C        2.54563000       3.83700000       2.95925000      -0.01786973       0.35043414      -0.04985565      -4.55568559       5.91996702       5.65419080      -0.57654943
C        1.73480000       0.41012000       4.39522000       0.04594122      -0.56219383      -0.35209098      -2.85677778     -18.07915897       5.67997392     -39.39779162
C        4.38668000       2.75246000       4.64926000      -0.82195341       0.33214952       0.34341621      -5.65937653      -1.61701418       5.18004149       2.02325353
C        2.04413000       3.34240000       1.75662000       0.77764214      -0.78638976       0.31342197      -6.83641014      -4.24585234     -11.19063859      -2.34051132
C        4.28023000       5.50125000       4.34532000      -0.29206713      -0.19187563      -0.32348814      -4.64066726     -14.86443673       7.66742535      12.44900030
C        1.00174000       5.53857000       6.58505000      -0.37062017       0.04731778      -0.03775297      -6.72677900       0.47014621      -4.67000914       5.08432646
C        4.73002000       4.36013000       6.64212000       0.05838454       0.54013494       0.93941399      -5.54718982      -2.36045337      38.77094424      -2.42368354
C        1.94183000       3.88027000       0.38394000       0.96820152       0.37030346      -0.37489795      -6.66238359      -6.45613259       5.23042393      -1.11749997
C        6.09101000       0.39639000       6.35860000       0.26514489      -0.92916835      -0.64319169      -5.14184193      15.83563475     -31.65050374      16.90078104
C        4.92413000       4.11009000       5.33541000      -0.76539627       0.32022126      -0.04612914      -6.16093693      -7.99011061       5.34544785     -11.31100843
C        4.65572000       5.75968000       7.16090000       0.23591762      -0.78873766      -0.00662252      -5.04746932       3.36380053       2.79008321      -2.57939944
C        4.81604000       1.86793000       5.73643000       0.44236853      -0.57651851      -0.10433485      -5.34785279     -25.01082242      28.19060657     -11.04880491
C        5.59863000       3.80368000       3.34960000      -0.55219175      -0.36017715      -0.95486105      -4.29462879      14.02262731     -11.37283726      -0.00176419
C        1.11832000       2.08866000       2.02172000       0.38475503       0.12701927       0.59181131      -5.49983726       4.02153807       4.45037572      -0.10163390
C        2.89866000       0.46052000       4.97999000       1.01081298       0.94783354      -0.60258384      -3.12042066      22.43699340      -7.54515638       0.94189515
C        5.79133000       5.09356000       2.55370000      -0.02683084      -0.37784869      -0.68434948      -5.52045719      -3.32574687      -2.50020285      -1.34564241
C        3.02606000       3.07656000       4.13231000      -0.29954058       0.50728604       0.75515034      -5.86791659       1.44607139      -3.10015117      -5.48115893
C        5.75331000       1.64757000       8.03350000      -1.12460552       1.17394698       0.28212748      -3.50196094      -0.35726874       1.61417920      -7.16072258
C        2.20894000       3.40741000       5.11665000      -0.12173012       0.60820508       0.30964134      -2.27143114      -2.01539304       3.83590188      -3.06095981
C        0.10200000       1.61554000       1.18283000       1.48436601       0.43698782      -0.34874454      -2.56539135       1.61024921      -0.27283888     -16.96262427
C        2.08588000       2.85652000       6.37078000      -0.29674277      -0.67227681      -0.22289266      -1.97152762     -11.31161008     -11.36397381      -1.20951218
C        2.39572000       6.01911000       6.19986000      -0.41519983       0.39587663      -0.29494013      -4.76684399       8.28419187      -9.09631356      36.65355053
C        0.31271000       2.12372000       3.17664000      -0.51890945       0.28698836      -0.31750522      -4.88110944      -1.16724449      20.96741784      15.46012103
C        4.52840000       5.82420000       3.02899000      -1.26929085      -0.50962697       0.43070092      -5.73893288       8.07574047      -4.26915612      -3.48127034
C        4.03542000       3.48001000       7.54095000       0.61400853      -1.46874963      -0.73513113      -5.13919264      -4.57361926       2.03176182      -0.63631272
C        5.91820000       5.18782000       1.04323000       0.24356735      -0.25333740      -0.12221920      -6.12338733       0.89736558       4.72543005      -2.70589765
C        0.02556000       4.44826000       4.80391000       1.64201960      -0.20732184       1.33124306      -3.88357973      -1.31936081      -2.87262570      -6.07362861
C        5.96069000       1.22889000       5.21665000      -0.31387023       0.01898224      -0.00797572      -5.02738820      -0.27454731      -3.46085903       4.52433200
36
Lattice="6.163743 0.0 0.0 0.0 6.163743 0.0 0.0 0.0 8.218324" Properties=species:S:1:pos:R:3:momenta:R:3:energies:R:1:forces:R:3 virial="7.324435467915814 -1.3691905013204728 1.5736151506864136 -1.3691905013204728 -10.260009212337337 7.134474633720599 1.5736151506864136 7.134474633720599 -2.2939334134585585" config_type=Amorphous_Bulk energy=-216.56237691589152 free_energy=-216.56237691589152 stress="-0.08650763831545123 0.02884479508657846 -0.013950971881210885 0.02884479508657846 -0.05048327129826805 0.030186841002651944 -0.013950971881210885 0.030186841002651944 0.012445897245489545" pbc="T T T"
C        0.66969979       1.41604038       4.18867627      -0.06852543      -3.74108020       0.65332780      -6.84487552      -3.09198566      -0.30369988       2.98768783
C        1.14781275       4.99640153       0.18371911       2.05745736       0.89173265       0.33169059      -6.60364167       4.77706589       0.85150382      -8.04296075
C        2.63389680       2.98081836       7.54657232      -1.62524775       0.40993418      -0.55232715      -5.22036582      -4.86280821       3.24150530      -0.33996215
C        4.71953882       2.09958319       6.98296148      -0.12739113       0.09789448       5.43009245      -7.15506813       0.18826699       3.07764123       0.64496228
C        5.57121348       0.56220530       1.08339003      -0.79115849      -1.38503258       1.65827762      -6.15528290      -2.50793295     -13.87159533      -0.49819767
C        4.59757905       0.46854526       2.22825467      -1.85172303       3.42146389       1.82109375      -4.23605730      -2.09716607       3.76938923       0.79501550
C        0.88739213       4.28450801       5.81885732       1.48577542       1.28552946      -1.74737088      -5.95971882       3.73269600       6.91968314      -0.78449183
C        3.79503023       6.97380505       7.13872174      -0.29651442      -1.18005678       1.91412419      -5.73290501       8.58112143      -2.60356406       9.20244644
C        2.56971871       3.19669261       3.06873792      -2.69758038       0.95279670      -0.09027048      -3.80354519      -0.48866573       2.78852071      -5.35638755
C        1.77054765       0.49436083       4.02540294      -1.34200130       3.06209968       1.26603003      -4.64073493       2.81936188      -0.77265380      -5.52538632
C        4.24882564       3.10466764       4.84429026      -0.18772134       1.90091619      -4.33173270      -6.03111325      -6.17012251       1.16087370      -3.60021739
C        1.99188045       3.06183420       1.52741664       0.42232396      -1.25619615       0.40824951      -5.92503141      -0.36669479      -0.62134756       8.58453082
C        3.84930745       5.36738210       4.40733201      -2.10749327      -0.09696888      -0.80806516      -6.44500331       7.76895241      -6.86314339      -3.77904777
C        1.24373213       5.67129144       6.95405602       1.48600872      -0.16831280       1.50566919      -6.98604119      -0.18490840      -2.74465178      -2.23441454
C        4.54801950       4.64605883       6.79597327       2.50262794       0.40090037      -0.45907532      -6.29123494      -2.34668350      -9.90383462      -5.99340939
C        2.14344179       3.89535239       0.33387179       1.26183271      -2.28911247       1.42116398      -6.34819027      -4.13247133      -2.06749049       7.42998189
C        5.99798127       0.28989177       6.63665914      -1.77995639      -0.65956616      -0.88453618      -5.72707277       7.60105670      -4.81664679      -4.38965662
C        4.81065199       4.31604836       5.23399790      -4.26143950       2.78780623       1.83488930      -6.81796470     -16.06788172      10.37168459       7.96604400
C        4.87851996       5.85837899       7.26359968       4.60160557      -0.92096321      -0.08936621      -6.04734199      -4.16975409       7.25656116       2.36894947
C        4.65192316       2.06792924       5.47994585       2.21170905      -1.89242728       1.60410016      -5.24121387       7.65838335     -11.82807064       6.53428343
C        5.93467358       3.93918600       3.49357797       0.17601757      -0.72043500       0.84277499      -6.29481004       7.16500646      -7.03054341      -2.61925219
C        0.77097226       2.29863023       1.89341186      -2.22290007      -1.43385252       0.54251983      -6.59119892       2.58237815       0.74172146      -9.36683796
C        2.96159064       0.10702065       4.83812793       0.96245408       3.63534418      -3.55988472      -6.49771829      -8.76926420       6.39031904       8.63534220
C        5.43202083       4.62601152       2.30644866       2.61656570      -1.67342262      -1.64426489      -5.44027081      -2.05200792       0.90893977       1.90915808
C        2.79008718       3.02564931       4.48308731       3.28222822      -2.18773125       1.35650225      -6.81119693       3.56907219       0.66533120       1.76221970
C        6.33308106       2.13950773       7.55628740       4.43844786      -1.93699408       0.78135210      -6.51279038      -3.39725380      -0.82756582       2.15057315
C        1.71876158       3.09391839       5.53777289       0.55151770      -0.60476052       1.41720088      -6.24198421      -3.10385985       3.08520771      -0.03957424
C        0.26416039       1.52685417       0.74933306       0.05760871       2.10054773      -1.61117285      -6.71351554      -0.80700838       7.09702356       1.37635395
C        1.37570747       2.21445361       6.68322390      -5.51849213      -1.20474607       1.33929868      -5.55946491       6.75253717      -1.23790356       2.76298675
C        2.67484232       6.63245769       6.47764387      -2.84928229      -0.04233713      -1.69949470      -5.71674408      -5.58557052      -3.68435988      -9.21693628
C        0.12843043       2.42886338       3.13722803      -1.49683303      -3.26517942       1.17584297      -6.76636991       3.87333459       0.89432461       3.42395348
C        4.18511593       5.32011632       2.98714044       1.61548611       0.70046207      -2.05029278      -5.92487027       1.33427928       4.52258923      -5.60037933
C        4.02622768       3.36701697       7.52012718       1.28123756       4.49146980      -3.02492811      -5.81848333       4.47652702      -2.04299500      -4.36044706
C        6.09496051       5.18867544       0.87498786      -1.15289071       3.02669710      -0.68112671      -5.96517242      -4.26467800       2.96177938       5.49649918
C       -0.13306731       4.52961629       4.87807717      -5.32429767      -2.49034031      -2.78728313      -5.63589967       6.50232924      -0.63855845      -5.85058326
C        5.82681270       0.92134679       5.09843809       4.69054410      -0.01607926      -1.28300829      -5.85948421      -4.91565110       5.15402563       3.56715417
36
Lattice="6.163743 0.0 0.0 0.0 6.163743 0.0 0.0 0.0 8.218324" Properties=species:S:1:pos:R:3:momenta:R:3:energies:R:1:forces:R:3 virial="7.324435467915814 -1.3691905013204728 1.5736151506864136 -1.3691905013204728 -10.260009212337337 7.134474633720599 1.5736151506864136 7.134474633720599 -2.2939334134585585" config_type=Amorphous_Bulk energy=-224.30865410577692 free_energy=-224.30865410577692 stress="0.027177434193775832 0.08614667692758496 0.013427542945360364 0.08614667692758496 -0.041483599521093664 0.03550595037453409 0.013427542945360364 0.03550595037453409 0.036546318341380446" pbc="T T T"
C        0.80512347       1.42095190       4.21973606       0.98264480       1.20511809       1.16432045      -7.05962735      -4.28802605      -1.41761593       3.04907525
C        1.03497099       5.04421223       0.05991978       1.69936511       2.79799211      -2.79698905      -6.67789702       3.80905483      -4.17564945       2.31279391
C        2.49846907       3.02726419       7.90266385      -0.08649932      -0.12063609       0.89058339      -6.28188248       5.28584245       3.28982358      -1.23490495
C        4.70538631       2.06199600       7.10850216      -2.43129932      -0.32759712      -0.26818752      -6.73375486       3.14962069      -2.41830714      -1.71019658
C        5.56427650       0.53965242       0.75488619       0.81659686      -2.24584966      -0.45287752      -6.26180249      -4.16306255      -2.35437900       3.86401626
C        4.26559013       0.49620527       1.71519402       1.41177115      -1.08681320       0.31760051      -4.15850240       2.41932451       1.12646391       0.49231387
C        0.86322228       4.33547055       5.72988838      -2.07025639       0.23558943      -0.67248980      -6.38777481       1.85731504       2.39762639      -0.08210056
C        3.82024305       6.70353753       7.22438311      -0.79791622      -0.77553374       1.64153291      -5.74786478       1.84058158       1.18112688       2.04462274
C        2.45038570       3.79654555       3.35059638      -1.28560772       1.74575851      -0.74154278      -4.80635908      -1.48738861       1.54312379      -4.79628859
C        2.15339574       0.78527750       4.06558447       1.35418763      -0.48025050       1.30840916      -4.71756290      -7.77508438       6.30927579      -2.35033460
C        4.21531204       2.95517465       4.82047715      -4.78114509       0.90730895      -0.03063905      -6.39794487      -2.82836884       1.41325165      -0.65644033
C        1.89941066       3.31394698       2.01913443       2.73573972      -0.10128222      -2.28020462      -6.51434939      -1.86892316      -0.60207138      -2.37148911
C        3.99053829       5.54340240       4.38906048      -2.49316894       0.07370793      -2.27368395      -6.50260146      -2.37714154      -3.46964528       0.08275288
C        1.29322422       5.43695185       6.78645634      -2.23042067      -1.04381893       3.62311477      -7.86715270      -2.85894877       3.09650896       0.88538446
C        4.47285091       4.41435131       6.59040401       1.76649640       3.99900734      -0.14767985      -6.41365079       0.91159712       7.74628425       7.82570582
C        2.02979087       3.97694734       0.74873187      -0.50503409       1.42933502      -1.70825278      -6.34439127       1.03762577       1.03499236      -5.33031238
C        6.13112410      -0.01446530       6.39006484       2.71547291      -0.47993413      -0.89908363      -6.40825318       1.41081523       1.79498412       1.81489886
C        4.65643698       4.38234938       5.22819865       0.59372866      -0.73091294      -0.14300692      -7.24778905      -7.30310194      -3.95568585      -2.69975846
C        4.96030146       5.74765820       7.12833786      -2.77579542       1.97715928       2.28427911      -6.29536942      -3.63186352      -4.17681562      -0.67106890
C        4.78958685       1.76854045       5.49387310       2.17362260      -3.25395902      -0.20878920      -5.56177670      -5.61010581       5.63803490       6.04888833
C        6.08401141       3.80873258       3.39669759       2.85858127      -1.22595665       2.40761698      -6.18724542       0.69944239      -1.89824559       0.92508240
C        0.71973607       2.37171473       1.76113658      -0.19088962       1.46560047       1.05603359      -6.14412487       0.55215922      -1.16699325      11.09489085
C        2.72843459       0.00142575       4.97773337      -1.29406615      -1.05033263       0.08220362      -6.69736755       9.57205201      -3.93674377      -0.55460130
C        5.64884484       4.53972103       2.15407559      -0.83204188      -0.37014230      -1.16869507      -5.35088034      -7.37934243       5.40308987       1.22836411
C        2.74652581       3.01344694       4.48145371       2.90880420       1.72728394       1.92465034      -6.84476235      -0.89704468      -0.54439666       2.47069116
C        6.30388448       2.25057647       7.70481522       0.28120908      -0.44808997       1.02714876      -5.81332040       1.23391923      -2.72450021      -5.65086404
C        1.66395589       3.20757878       5.60027451       0.12625570       1.64200898       0.74712117      -6.52397939       0.33215791      -4.57327844       2.05627821
C        0.43616406       1.53500558       0.67152921      -3.68035250       0.39785762       2.53239421      -6.44660041      -4.14461679       2.87358810      -0.62425278
C        1.49813356       2.44294393       6.90139523       2.68009220      -1.47906165      -2.91231571      -6.31241907       1.81755443       1.60025766       0.93011087
C        2.57340570       6.24968912       6.43803861      -0.62995274      -0.50803271      -2.18541277      -6.64760550      -1.90966583       1.02249407      -2.62195604
C        0.07309453       2.22841363       3.16459653       0.76882567       0.79230312       4.36059839      -6.06645733       4.04561042       2.47416245      -1.01844125
C        4.21743454       5.49241767       2.75152834      -0.28557599       0.58856752      -0.98613083      -5.68522651       4.51465654      -1.41475493      -0.02542277
C        4.10442395       3.30684457       7.44469702      -0.21846632      -0.46168227       2.08634158      -6.35055704      -7.52464676      -2.87227752      -1.80850408
C        5.98105337       5.35984810       0.77907928      -0.40795559      -0.62394628      -1.44458181      -6.32539849       3.53204320      -2.81551968       1.04174186
C       -0.24553820       4.44296347       4.85105215       0.76374211      -1.57843433      -1.98441745      -6.08935588       8.82055883      -1.60420538      -8.74287577
C        5.97788577       1.12382726       5.45315394       0.35930789      -2.59233197      -4.14896860      -6.43704653       9.20540026      -3.82400364      -5.21779931
36
Lattice="6.163743 0.0 0.0 0.0 6.163743 0.0 0.0 0.0 8.218324" Properties=species:S:1:pos:R:3:momenta:R:3:energies:R:1:forces:R:3 virial="7.324435467915814 -1.3691905013204728 1.5736151506864136 -1.3691905013204728 -10.260009212337337 7.134474633720599 1.5736151506864136 7.134474633720599 -2.2939334134585585" config_type=Amorphous_Bulk energy=-228.66070140097344 free_energy=-228.66070140097344 stress="0.011042025992655769 0.06348092762800986 -0.0009479757592932864 0.06348092762800986 -0.04844204244208914 0.012066867380751573 -0.0009479757592932864 0.012066867380751573 0.01551654672441387" pbc="T T T"
C        0.76891776       1.34974488       4.11940841      -1.84141455       0.71476276       1.82603727      -7.04142037      -4.54266117       3.72058198       3.15367420
C        1.10157724       4.98623035       0.30547911       1.55906058      -1.64462397       2.78137263      -6.63364322      -1.21188544       0.12134239      -1.37615584
C        2.62450540       3.21357442       7.77647330       0.50187415       1.23876342      -0.27171313      -6.70575254      -5.79520331      -5.71247892      -4.59336655
C        4.65529032       1.83734713       6.93102940      -0.62116537      -2.61061009      -0.83179749      -6.91395537       1.06080241       4.02033915       1.76984887
C        5.45156538       0.47080773       1.17234215       1.21642949       0.87474924      -1.17888992      -6.27752121       1.22375849       5.25350918      -0.28010174
C        4.24675063       0.48554961       2.14097542       1.46986888       1.50334874      -2.59548420      -4.25927547       1.04363085       2.30011687      -2.22001105
C        1.02029356       4.45617766       5.59305981       2.57522860      -0.72396476      -0.06282169      -6.16560663      -4.93800156       1.85668987       0.71722094
C        3.97530295       6.78566327       7.30135145       1.07333725       0.01969795       3.01921849      -5.69212117      -4.79998341      -5.16714317      -1.00765707
C        2.49949352       3.82171700       3.06204352       0.98124754      -0.37943443       1.36278892      -4.70550170      -2.45716403      -5.33132194       1.76602738
C        2.06750107       0.86842879       4.03760539       0.92930107       0.54868615      -2.34041694      -4.90071018       1.17662234       1.96273830      -3.12118860
C        3.96367814       3.03077262       4.72686550       0.83591479      -0.62748496       2.98602748      -5.92349847       6.54907851      -6.35159432       3.14125262
C        2.08452376       3.12887905       1.82623574      -3.10095602      -0.40826165       0.48516806      -6.54767214      -0.94341996       6.26271710      -3.29497952
C        3.74206096       5.33135906       4.45576906       1.06164229       0.85527234       0.72053036      -6.58391284       1.34347248       0.36035655      -6.37390339
C        1.22730412       5.51908959       6.86077407       1.49251003      -1.09413705       0.18948882      -7.33024066       0.56757233       1.03340230       0.06658047
C        4.54970116       4.42066031       6.57650014       1.92421074      -0.93059694       1.60536787      -6.59452789      -1.19821729      -4.70458647       0.28434133
C        2.04294979       3.93435405       0.62488937      -1.03887275      -2.60910768      -0.91421000      -6.70088664       5.15166104      -1.21381113      -0.05698738
C        6.25355005       0.28404027       6.54510623       3.08201884       0.88517290       0.53020533      -6.43066716       0.96957984      -2.29996785       5.28342136
C        4.54674888       4.23596069       5.14654567      -2.89690543       1.11870566      -1.02781460      -8.02513594       1.10713202       6.02282396       1.31193106
C        4.95162564       5.67953092       7.04833705      -2.54427358      -1.32510385      -1.53481274      -6.27625505       0.38676233       4.44340761       2.64388134
C        4.82582951       1.74977040       5.39161740       1.38596180       0.09670566      -0.05796399      -5.34984038      -7.45776260       4.75824411       1.02370670
C        6.15449331       3.91784740       3.32706086      -2.51723499      -2.43908273       1.71701190      -6.91215235      -2.08913187      -1.48740671       1.82386715
C        0.91408403       2.33267838       1.80127525       1.21844698       0.68122351      -1.09452977      -6.40294724      -0.95814171       0.10072395       6.40329396
C        2.73664375       0.10738681       4.97771978      -0.79079579      -3.07049622       1.15022989      -7.02856583       2.33922261      -3.07837487       4.44204920
C        5.38320657       4.68587547       2.35916528      -1.61493085       1.24621360      -1.26916338      -6.49562828       0.69990184      -2.15252483       0.14626749
C        2.61177251       3.03205895       4.39482805       0.32913365      -0.07961156       0.04452010      -6.77769818      -0.87613695       1.15560184      -0.11725950
C        6.39526442       1.78985731       7.43549735       0.90570186       0.70946969       1.37955606      -6.45836053       1.42896251       0.02078751      -0.41824619
C        1.64607297       3.24269806       5.55373017       1.25104299       0.53137592       0.86091136      -6.59417841       1.81263582      -1.90952006      -2.25556042
C        0.28283792       1.62463750       0.76649431      -1.03734865       2.60462143      -0.61861402      -6.52835746      -5.84471687      -4.47763769      -3.02225423
C        1.60955381       2.48576722       6.78795300      -0.54525563       1.94235008      -2.44116828      -6.32439852       1.49630493       0.98528054       3.57024957
C        2.50295131       6.38961865       6.49249829      -2.14392274       1.13811135      -0.38113453      -5.98039060       2.11966438      -0.02394764      -1.57993503
C        0.25932957       2.48227176       3.09656065      -1.59649695      -0.39276686       0.23099396      -6.50618515       2.32483710      -3.08590948      -2.24081440
C        4.03021639       5.39458891       2.86962289       1.15977938       1.91137289      -0.17259515      -6.15494624       2.48931601      -1.52100024       3.22286548
C        3.98417294       3.14059594       7.45293282      -1.47191998       1.91425659      -1.57810659      -6.51647208       5.56040861       5.45843821      -2.74921104
C        6.09250815       5.40895606       1.27032001      -0.02380447      -1.45537080      -2.35194173      -6.46869456       1.04170368      -3.08157613      -1.56941574
C       -0.19605936       4.32018098       4.66733820      -1.54536668      -1.41181013       1.58737946      -6.59624944       0.37907870       2.50843955       1.66082535
C        6.10487185       1.16644280       5.36194490       0.37795350       0.66760380      -1.75362981      -5.85733150       0.84031737      -0.74673949      -6.15425678
36
Lattice="6.163743 0.0 0.0 0.0 6.163743 0.0 0.0 0.0 8.218324" Properties=species:S:1:pos:R:3:momenta:R:3:energies:R:1:forces:R:3 virial="7.324435467915814 -1.3691905013204728 1.5736151506864136 -1.3691905013204728 -10.260009212337337 7.134474633720599 1.5736151506864136 7.134474633720599 -2.2939334134585585" config_type=Amorphous_Bulk energy=-229.8420403358602 free_energy=-229.8420403358602 stress="0.08181728524255774 0.028624177871828776 -0.008860819490777844 0.028624177871828776 -0.07444723695274949 0.04564911123683153 -0.008860819490777844 0.04564911123683153 0.053708266681106946" pbc="T T T"
C        0.39390463       1.31914647       3.94874231       0.98608625      -0.15994646      -1.69333232      -6.71431198       4.68494956      -3.26275442       9.37682347
C        0.90547245       4.84417070       0.02051965       0.36673862      -2.17715316       0.32442578      -6.54461098       6.31520229      -0.92103996       0.18020703
C        2.63997744       3.16463108       7.73173708      -2.40208459      -1.04927471      -0.61363340      -6.83574011       1.02988863       1.58091151       2.52581154
C        4.80522454       1.96692902       7.19184283      -2.00787218      -0.86755536       0.50685536      -6.23147250      -0.59448979       4.18813711      -1.23660321
C        5.58042659       0.47720308       1.20533806       0.41371105      -2.20154369       0.39225054      -6.46605275      -0.97729635      -4.48208434      -2.26906761
C        4.54068260       0.67039989       2.17267406       0.14145432      -0.10964901       0.22555776      -4.37830692      -1.30916788      -1.83476034       1.04721523
C        0.99140118       4.29380221       5.62483333       1.01091537       1.05368172       0.96913343      -6.16762795      -4.68651955       5.85129867      -1.86656870
C        3.78316843       6.82198768       7.31507743       1.77940857      -0.43657494       0.97812324      -5.65110139       1.09532981      -1.24139226       2.78577634
C        2.60171849       3.65982830       3.11225605      -1.09432317       0.18561990      -0.19708198      -4.81873767      -0.86750074       3.58897343      -5.89614191
C        1.94130226       0.82920253       3.90902933       0.19077057      -1.41353059      -2.08912195      -4.44497625      -1.42893338       0.51201632       0.93777011
C        4.14811212       2.94599011       4.89503706      -0.68756014       0.48166168      -1.65571003      -6.54213367      -3.32482961       4.01869190      -2.81322673