27
Lattice="6.403228 0.0 0.0 0.0 6.403228 0.0 0.0 0.0 6.403228" Properties=species:S:1:pos:R:3:momenta:R:3:energies:R:1:forces:R:3 virial="26.379653532115288 -2.8806012487978325 9.10033438939633 -2.8806012487978325 29.382052443831384 -5.3396463792146145 9.10033438939633 -5.3396463792146145 19.280274427293133" config_type=Amorphous_Bulk energy=-103.30155519016672 free_energy=-103.30155519016672 stress="-0.47042869462930836 -0.0900320187745279 0.046387667193053525 -0.0900320187745279 -0.501852091793242 0.1945173607378146 0.046387667193053525 0.1945173607378146 -0.48866072536245575" pbc="T T T"
C        6.36673000       0.38334000       4.97441000      -0.40781666      -0.78060760      -0.33066802      -2.62489577      -7.45746255     -12.27596581       6.44132986
C        0.57614000       0.46532000       1.60801000       0.61963145      -0.33225776      -0.75697803      -0.74649556      -5.71029199     -10.26847158      -6.51966443
C        4.75409000       3.84822000       1.93411000       0.93872243       0.83267424       0.42443126      -5.00143427      -1.75736150       2.80974972      -0.79236871
C        5.96414000       1.12766000       1.28387000      -0.04690274      -0.13860196       0.20790859      -3.70679310     -15.61097060       1.82248836      -5.96622722
C        3.72692000       1.87361000       1.41252000       0.38039078      -0.14419780       0.19552579      -4.95586136      -0.98475970       2.81431809       2.58124373
C        2.87941000       0.29846000       4.14221000       0.24539750      -0.01058894       0.12499770      -4.42161987       4.46580785      -0.23175505       5.37665095
C        4.59222000       6.38383000       2.50338000      -0.11596837      -0.06008243      -0.79549047      -4.54502350     -10.09887306       5.02627825      -4.78684684
C        1.67263000       0.41975000       2.26556000       1.00197411       0.30797823      -1.22579768      -1.36231664      15.86611228       1.37637883      11.47584336
C        3.48240000       3.29348000       1.70380000      -0.13368054      -0.75672050      -0.80614979      -5.33529683      -7.20241327     -27.59811014       1.92853477
C        5.26536000       3.06203000       3.89985000      -0.80713478      -0.33655435      -0.16505719      -5.17063561      12.21750386      -5.56749879       9.08405960
C        5.19366000       6.04205000       0.53600000      -0.56404818       0.16619840       0.94104353      -2.03075528       9.06376546      17.99328509       0.39680216
C        4.91066000       1.50567000       2.31530000      -0.17327522       0.15014048      -0.04618033      -5.97239025      -3.10467485      -5.24999281       1.39141536
C        4.50728000       4.95369000       1.02695000      -0.03171799       0.46761926      -0.69346823      -2.67918359       3.05284836       7.04310805      -2.93771743
C        0.37564000       2.59844000       3.68645000      -0.76856333       0.48184685       1.30604715      -4.70286418     -18.15279765      -0.48567515      10.23967501
C        2.21134000       3.51102000       2.09637000      -0.70800373       0.95708031       0.76108909      -3.87970613      -3.52111323      11.42694092      -4.02954593
C        2.24151000       0.89054000       0.95924000       0.80610748      -0.37346996       1.39255028      -2.43800545       2.30277896      -1.98089136       3.79431394
C        5.00091000       5.19025000       5.73594000      -0.12048931      -0.25926050       0.54525668      -3.02339930      -2.69465441      -7.19236113      -2.39629357
C        3.53894000       1.37732000       5.01113000       0.01528879       0.23404794       0.09163180      -5.28064607       1.49064252      -6.44217358      -7.34852942
C        5.57320000       5.64110000       4.56637000      -0.02916872       0.38562632      -1.03379383      -5.90961571       0.51188712       4.26347546       1.52391985
C        4.81035000       5.40350000       3.39802000      -0.64486890       0.08330120      -0.22251678      -5.08944150       9.33787260       3.62623866      14.93071396
C        1.31881000       2.97191000       2.97168000       0.64414081       0.40827145      -0.03341573      -2.98313535      10.15855124       2.66976320      -5.73228417
C        4.48351000       1.85249000       4.01644000      -0.55473236      -0.47427315       0.37998066      -4.81472507       3.40186487       2.71235486      -3.79523305
C        4.84849000       4.07512000       3.29872000       0.54547261      -1.37580788      -0.19665357      -4.80315811      -6.86885168       2.89557628     -16.40227515
C        1.62164000       0.47919000       4.51994000      -1.05767308       0.54411222       0.25094997      -2.59842055      -5.48057498      -2.80363909       4.92287957
C        0.45834000       1.44630000       4.34254000      -0.03677236      -0.05467298      -0.33677570      -1.94188626       6.65887164       7.47951090      -4.83292028
C        2.79015000       1.43520000       6.20754000       1.01329042      -0.38159467       0.26959143      -2.57841871       1.94103278       7.79012786      -7.31855157
C        2.88397000       6.30924000       2.82562000      -0.00960011       0.45979358      -0.24805859      -4.70543116       8.17525995      -1.65306005      -1.22892433
27
Lattice="6.403228 0.0 0.0 0.0 6.403228 0.0 0.0 0.0 6.403228" Properties=species:S:1:pos:R:3:momenta:R:3:energies:R:1:forces:R:3 virial="26.379653532115288 -2.8806012487978325 9.10033438939633 -2.8806012487978325 29.382052443831384 -5.3396463792146145 9.10033438939633 -5.3396463792146145 19.280274427293133" config_type=Amorphous_Bulk energy=-140.21054497795575 free_energy=-140.21054497795575 stress="-0.06585390938937473 -0.0410051381295254 0.06205254652972525 -0.0410051381295254 -0.07240987722421109 -0.07900068424124121 0.06205254652972525 -0.07900068424124121 -0.1433140179562269" pbc="T T T"
C        7.03113108      -0.41671553       5.36576681       1.22374482      -2.16211187      -0.94731554      -5.09734649      -6.39429500       9.35830273      -4.10076143
C        0.26368879      -0.06426151       1.97213206       0.00071546       3.36536427      -1.38175182      -4.51182985       4.86984123       2.66259309      -2.25353048
C        4.33819111       4.33793038       1.61617390       1.22124304      -0.10361553      -3.43002649      -6.06727174       7.65338340       6.62921204      -7.84983376
C        5.56802309       0.85759595       1.43817987       3.02853000      -3.23052242       0.02553877      -5.69787604       1.35566646       0.01792457       0.35636336
C        3.29679313       2.28944813       1.78660986      -2.74489625      -2.31194496      -0.86347974      -5.47417882       2.28686939      -6.41731144      -0.22967835
C        2.61570236      -0.17676166       4.56726583       2.12692609       4.77660839      -1.83818736      -5.70659899       4.91935821       6.58476341       2.13779168
C        4.05213874       6.36759569       2.70426453      -1.23562722       0.37515156      -1.15177907      -5.56222539      10.47117268      -3.10675859       2.49489652
C        1.81143525      -0.43647623       1.97356731      -1.44470164       0.54881270       1.74867711      -4.37433085      -1.21279991      13.62208555       2.34398060
C        3.19011194       3.74341011       2.00664705      -0.57594262      -2.92127979       4.64653779      -6.21310318      -6.15919078      -8.15114164       1.11903454
C        5.33906313       3.20112294       3.81197815       0.91531881      -0.81760558       0.77132254      -5.14323596       4.83727371      -3.11709663       0.54600240
C        4.62468776       6.75940608       0.40777186      -2.36417977      -2.12815297      -3.30312093      -6.10765054      -3.22473032      -1.59717024       2.05869743
C        4.44720022       1.47186625       2.40406757       2.23915663       1.44860125       0.19915311      -6.61384894      -2.17242173      -3.82623685      -2.26616810
C        4.45872892       5.16272564       0.27194614       1.22471132       3.84940341       1.74658437      -6.15256289      -1.13209682       9.53450714       6.94419039
C        0.35863246       2.50238549       4.35521379      -0.29694348      -4.32366683       0.12735356      -3.99464081      -0.84800158       2.39133277       0.92039487
C        1.65076975       3.93820580       1.89814152      -0.54803953      -4.43512449       1.49012076      -4.21200389       6.95986784     -11.04015105      -4.33796897
C        3.38138814       1.30597985       0.44941212       2.65499447       1.58975444       1.28321662      -5.79659771       0.93130089       5.45129769       1.62088202
C        4.93033337       4.93819162       5.41222890       1.27632728       2.92430555       0.15866009      -3.85003508      -1.95516045      -9.65472928      -5.31188845
C        3.37137432       1.36282797       4.52573457      -1.90219152       0.85815365      -1.84237728      -5.92810458       1.45904471       3.60557239       2.62505536
C        5.97032038       5.35891319       4.51992348       1.19827916       0.03675737      -0.28091578      -5.88883372      -1.78526016      -0.69029923       8.73738573
C        5.38208818       5.40967976       3.25454772       2.53415297      -0.21290681       0.27544555      -5.23960191      -4.18550848       3.27602869      -2.77645397
C        0.78109225       4.17450636       2.90641736      -3.84326268       4.55325325      -2.76881896      -3.67709389      -3.92384190      -0.27905619      -0.43397844
C        4.64014492       1.88717094       3.70153343      -4.43056025       1.86639590       0.35037125      -5.57475004      -3.32809116      -0.29572641       0.96928009
C        5.72387596       4.28148844       2.42426847      -1.13776578      -1.68863089       1.01771901      -5.99748040      -5.79132071      -5.04938451       5.40771166
C        1.90355187      -0.61714140       5.84123922       3.31983961      -0.91372971      -3.95097884      -3.36196669       5.05389747      -4.42524666      -1.88741493
C        0.84918859       1.08040643       4.71786111       3.03323234       0.34772349       2.51996194      -3.95543774      -1.13381914      -0.60842213      -0.01667216
C        3.21607171       2.23699846       5.71299328      -0.70230713      -1.65886100       1.29192874      -4.02730261      -1.49151258      -4.87572732      -1.12924317
C        2.85271256       5.88223085       3.19608408      -4.77075413       0.36786762       4.10616062      -5.98463623      -6.05962526       0.00083810      -5.68807443
27
Lattice="6.403228 0.0 0.0 0.0 6.403228 0.0 0.0 0.0 6.403228" Properties=species:S:1:pos:R:3:momenta:R:3:energies:R:1:forces:R:3 virial="26.379653532115288 -2.8806012487978325 9.10033438939633 -2.8806012487978325 29.382052443831384 -5.3396463792146145 9.10033438939633 -5.3396463792146145 19.280274427293133" config_type=Amorphous_Bulk energy=-151.125062400061 free_energy=-151.125062400061 stress="0.051061664984610705 0.04354435379637 0.004569189850391102 0.04354435379637 -0.05142722368963332 -0.11495996702761048 0.004569189850391102 -0.11495996702761048 -0.13801237298551805" pbc="T T T"
C        6.76868734      -0.07522448       5.36531948      -5.34943633       1.04752047      -1.11362881      -6.86703911      -5.66732904       3.09269872       0.19551086
C        0.68020174       0.48279450       2.01659188       2.53943012       1.86294164      -0.59063735      -4.79245016      -1.06636135      -1.13323983      -1.85806675
C        4.10657456       4.23512963       1.82682169       0.20912414       0.52480119       3.62271010      -5.88905641      -0.67469616       0.04306366       3.41174609
C        6.34318947       1.72485583       2.03141548       0.21441951       0.83923933       2.36571739      -4.51413161      -3.25375659      -2.65206484      -0.33550792
C        3.75187261       1.90416477       1.71851661       1.45796460       2.51635079      -1.13460041      -5.55583926      -4.62855584       2.00472665      -6.04835971
C        2.53608903       0.32425296       4.09731739      -1.59420343       5.03071158      -2.17521161      -6.47535794      -0.37055940      -3.83132274      -1.94431090
C        4.25961230       6.36772298       2.61171553       0.59108918       2.08120655       1.43425983      -5.82697725       6.93673157      -1.51621669       2.91729444
C        2.05416160       0.22614137       1.78080902       1.31998841      -2.16034086      -2.65882624      -4.88115379      -3.23610145       0.05264533      -0.26197631
C        2.95922246       3.08614697       1.82622275       0.97439525       2.30060309      -1.21667492      -6.53044656       4.02378875       5.99866487       3.72259079
C        5.71052440       2.91323238       3.84358425      -0.02615130      -1.21344505      -2.95967176      -6.46731661      -1.98301352       1.76046591       0.45387079
C        4.18593306       6.41520362       0.27544468      -2.14532617      -0.14692265      -0.65771278      -4.16379555       0.19374355       0.78940980       1.27663773
C        4.84480492       1.45080711       2.43756908       5.03603064       0.47010933      -1.26533999      -6.87464968       1.14106445      -3.46830581      -1.13974460
C        4.43752012       5.02311766       0.65230842       0.11559417      -5.10414164      -1.18313749      -6.61310565       0.59456247      -3.34403167      -2.29344658
C        0.56097770       2.52703036       4.63864736      -1.30936648       1.52334130       2.25629713      -4.35812386      -3.36340202       1.27546180      -2.31872255
C        1.50989932       3.17439354       1.33474232       1.08277862       1.08985821       0.24622678      -4.88187607      -0.53502756       0.19639280       0.62562552
C        3.36398911       1.19356917       0.62810773      -1.74332237       0.61413182       3.26071608      -6.27292657       0.26285352      -7.08283776      -8.44669129
C        5.37385923       4.44225650       6.09064165       2.55195421      -2.09724208      -0.08726465      -4.40434983      -3.29472645       0.01136608      -0.86845980
C        3.38275510       1.52888111       4.35903605       2.72137002      -4.51826175      -1.97436977      -6.31339269      -2.50427726      -3.97285951       0.89120544
C        5.66833197       5.38346159       5.03750006       0.37241130      -0.71995071       0.20276183      -6.45022163       4.32054491       4.90466937      -3.27230475
C        5.46286100       5.44942124       3.43328743      -2.45956048       0.82410247       0.53987388      -5.70818195      -5.41320846      -3.55023817       1.50416056
C        0.37514153       4.15956143       1.70643388      -2.64346474      -0.86705835      -1.70156277      -4.40024004       0.85078266      -0.11069280       1.16656667
C        4.63113640       1.86876197       3.71354156       0.75069199      -2.55698738      -1.02060476      -5.73893020       2.71638775       2.67177030       3.77802122
C        5.58584558       4.07028077       2.82476566       0.87066909       1.59874070       1.60535799      -7.54999587       1.79759226      -0.25292706      -2.38015244
C        1.61106007      -0.49298983       5.02551363       0.51077384       1.85367506       0.12971917      -4.74409717       6.66483903       4.34310493      -0.94010286
C        0.03339453       1.49275078       5.48582287      -3.46875228      -1.35656663       2.02007837      -4.54981317       2.30226132      -5.27859807       3.41111366
C        3.04702206       1.79463757       5.62624229       0.15816245      -1.42004559      -0.23684563      -3.94866448      -2.36881802       8.89140063      10.98896077
C        2.80377278       6.16836850       2.85405126      -0.73726396      -2.01637082       2.29237042      -6.35292930       6.55468088       0.15749411      -2.23545807
27
Lattice="6.403228 0.0 0.0 0.0 6.403228 0.0 0.0 0.0 6.403228" Properties=species:S:1:pos:R:3:momenta:R:3:energies:R:1:forces:R:3 virial="26.379653532115288 -2.8806012487978325 9.10033438939633 -2.8806012487978325 29.382052443831384 -5.3396463792146145 9.10033438939633 -5.3396463792146145 19.280274427293133" config_type=Amorphous_Bulk energy=-157.6940247214728 free_energy=-157.6940247214728 stress="0.027913068690231982 -0.04213154380045407 0.04893045196565573 -0.04213154380045407 0.04327464349598885 -0.034958504550967884 0.04893045196565573 -0.034958504550967884 0.054220598691736885" pbc="T T T"
C        6.65620910       0.29770262       5.30285803      -1.30378013       1.90523147       0.78462370      -6.66490275       5.06089606      -2.14515465      -1.83876463
C        0.67275855      -0.03284210       1.22148140      -1.13582495      -1.26382694       2.37439007      -4.84366664       2.19967313       0.17130394       2.16472843
C        4.52664164       4.18458845       1.72579876       0.86588039       0.92313791      -1.30241251      -6.60397728       1.02615091      -1.33820005      -2.65147113
C        6.27136567       1.11012013       1.74703014      -1.00579604       1.34323127      -0.47121714      -4.72979805      -1.12192821       1.24300452       1.03337978
C        3.83486417       1.68807759       1.44365086      -0.94618735       0.42893199      -2.09092110      -5.89445466      -1.91870070       5.86435953       0.85159769
C        2.46808901       0.52384353       4.04918255      -1.26062287      -0.97924883       0.56479908      -6.67539971      -2.26674347      -5.55242694       2.58075358
C        4.39466248       6.20799423       2.70492708      -1.95350504       0.89933577      -1.34154006      -6.34523619       1.65182308       0.88502197       1.66336119
C        2.25400782      -0.10329144       1.34035251       1.45285662       0.26495972      -3.05994741      -6.13298687      -6.32281874       0.48629978       3.49464274
C        3.43741406       3.15709264       1.82895693      -2.13626306       0.01608927      -0.90065863      -6.91230752      -1.25889400      -3.89025632      -2.68226459
C        5.43421758       3.03721715       3.92601873       0.92926996      -4.37184973       0.17764066      -6.17818199      -2.60078692      -2.54475588       1.55373481
C        4.13598777       6.32520694       0.03857516       1.76999685      -1.87461174       1.52518215      -3.89418304       0.64385493      -1.33280931      -0.97123264
C        4.81372412       1.12818322       2.37585903      -0.65931036       0.22236896      -1.47310059      -7.87869224       0.04799325      -2.48098179      -1.48505074
C        4.77783780       4.90288306       0.30789880       3.79343900       0.80136464      -1.43596714      -5.11609373     -20.51560586      15.16657538      18.53505264
C       -0.74110743       3.12681171       5.46581199      -1.00065029       0.98178058      -3.15011544      -5.84745944       3.74858511       0.88147633      -4.22848266
C        2.00870511       3.29067395       2.43245194       1.36118458      -2.19884368       4.95867196      -4.59222545      -1.25111361       2.29806128       1.29019666
C        2.96328801       0.84460540       0.43614350      -2.23472599      -0.96038095       1.49851513      -6.86235990       5.94840707       1.32326418       2.35614109
C        5.57941391       4.68052753       5.88153923       0.13448863      -0.27672296       1.33686401      -4.88767779      14.64440483     -22.61662163     -14.74951920
C        3.04521601       1.80204142       4.41281045       2.22362055      -1.15410800       0.83026988      -6.66150692       5.39200920       0.54938588      -2.14008532
C        5.83643680       5.54470726       4.83681963       0.84931892      -0.41050602       3.02070067      -6.68128143      -0.96855806      10.44773225      -0.21290051
C        5.39388931       5.42065863       3.35740701      -1.78848069      -0.46969279       1.12104808      -6.56771924       0.80579068      -4.87005883       3.84580276
C        0.63165029       4.01211418       1.99881014       2.65216791      -1.92313026       1.91213264      -4.56264285       2.70308088      -0.39263900      -0.23371268
C        4.46978646       1.86241580       3.73005691      -2.49888633       0.60659252      -3.09883161      -6.24592767       2.28830907       4.17984071      -3.29244895
C        5.70698618       4.12618830       2.75861496       3.02212273       2.29638647      -0.68453733      -8.10603662      -0.62981718      -2.04462193       0.26184427
C        1.76494329      -0.18040518       5.19525133      -0.27460798       1.01466404      -1.04032306      -4.35666818      -3.33622373       4.76633390      -2.75331287
C       -0.13194711       1.57963169       6.00276124       2.54489697       2.12755105      -0.99899415      -4.27793437      -1.88111615       2.57838969       1.63490833
C        2.88746725       2.26573802       5.86748193      -2.17023076       2.93932423       1.45220853      -3.80742454      -1.05885875      -5.06661896      -1.56520805
C        2.95593216       6.03624528       2.85341979      -1.23037126      -0.88802799      -0.50848043      -6.36727964      -1.02981283       3.43409592      -2.46168998
27
Lattice="6.403228 0.0 0.0 0.0 6.403228 0.0 0.0 0.0 6.403228" Properties=species:S:1:pos:R:3:momenta:R:3:energies:R:1:forces:R:3 virial="26.379653532115288 -2.8806012487978325 9.10033438939633 -2.8806012487978325 29.382052443831384 -5.3396463792146145 9.10033438939633 -5.3396463792146145 19.280274427293133" config_type=Amorphous_Bulk energy=-163.4499987517395 free_energy=-163.4499987517395 stress="0.043869712389509465 -0.026247757607685464 -0.038355551682682926 -0.026247757607685464 0.02278451008882898 -0.02359528301552428 -0.038355551682682926 -0.02359528301552428 -0.03599853926286319" pbc="T T T"
C        6.57648582       0.54115866       5.03455964       0.78381215      -2.57660831       0.13858481      -6.30431664      -0.58035862      -7.73394411      -0.53890568
C        0.71799375       0.12562140       1.43953366       1.63136385      -0.97477330      -3.73591158      -5.02347982      -2.81658723      -2.36735879      -1.97530085
C        4.56702951       4.02701316       1.62224582      -0.28643026      -0.00171858      -2.38476637      -6.51124113       0.89814007      -2.86860661       1.87353840
C        6.23314762       1.19333200       1.68613561       2.19419994       0.60377596       1.31193702      -5.03510707       0.79886204       4.50856001       0.24804822
C        3.73622994       1.73573906       1.65750127       0.18511109       2.70845702       3.48469284      -5.80884076      -2.55166714       1.45736388      -0.94596364
C        2.59380747       0.20737327       3.97728005       2.66201144       0.00752757       0.79378872      -6.85785630      -1.95832982       1.99437211       3.09355538
C        4.35508581       6.19243522       2.60031567       0.77534019       0.34473726       0.94802799      -6.46173780       2.31707486      -2.56124916      -0.26515397
C        2.11800405       0.20798411       1.44991256      -0.54404875      -0.83328956      -1.02937707      -6.27825411       3.49407511      -1.29427378       4.45181266
C        3.24710801       3.12737992       1.83187483      -2.28174840      -1.51537868       1.69319105      -6.66987891       5.33326046       5.31667248       1.34850690
C        5.38284235       2.90868447       4.01212780       2.06010649      -0.48603015       0.09303531      -6.16369385       2.16023185       5.22894152      -4.74614055
C        3.95554589       6.09083963       0.26807250      -0.27825473      -3.12246895      -0.33985533      -3.72174458      -1.54636616       2.09201673      -0.96203935
C        4.93906375       1.13006063       2.34058196      -0.03033341       0.96835072      -0.08708066      -8.01748064      -4.90458685      -0.66287700       2.31058073
C        4.76356320       4.86681090       0.49909024      -2.05837839       0.46180341       1.46770486      -6.80843278      -0.59509485       1.60784602      -3.51051740
C       -0.54072987       3.17290288       5.31585453      -2.39996654      -0.49053772       0.16345638      -6.32094882       1.15050332      -4.56750414      -1.45682428
C        2.10061405       3.70955434       2.72417844      -1.45259378       2.07739729      -3.05900488      -4.90330283      -0.63434140      -2.08690347      -0.24310162
C        3.10233155       1.05913190       0.57039208      -0.15820097       4.11341161       1.75380508      -7.30288770       0.71247378      -4.31998908       1.71702777
C        5.63452439       4.54296598       5.69216645       2.08770577      -0.95739354      -0.82533305      -6.71981386      -1.23316537       0.85666294      10.85040891
C        3.35501632       1.54622464       4.47080248       1.88820759      -1.83903811      -0.21433451      -7.05474917      -3.87982921      -4.60715032      -0.17856156
C        5.70736413       5.65522381       4.81126084      -2.63858675       0.97846241       0.08612495      -6.37657329      -1.47981648      -0.44277355      -8.61225811
C        5.21076082       5.27757281       3.31680342       1.76755222      -1.41959257      -0.91377309      -6.36850685       1.71819107       1.26029216       4.60814588
C        0.81001795       4.37585225       2.26288276       0.13479239       1.41892149      -0.86159630      -4.66866246       0.15122124      -2.28561950      -0.59479254
C        4.59656189       1.82154166       3.75298326      -1.52107504       1.75287688       1.03044719      -6.48469093       1.62709075      -1.60112277      -2.66845644
C        5.72987256       3.97230572       2.69271441       0.15541444      -4.32526619      -0.85857220      -7.62905900      -1.32656583       1.05807748       2.85029754
C        1.46386297      -0.34100364       4.71422268      -4.24863501       0.99442352       0.37163486      -4.42520015       0.55100014       5.70576374       1.48047628
C       -0.20455092       1.63263672       5.89556004      -1.04753879       1.75261186      -0.32945023      -4.40626233       0.89645230       5.53023653       0.84495646
C        2.98867298       1.98500207       5.87730349      -0.13095270      -1.70915501       0.57105237      -4.64314206       0.52398090      -1.38481982      -4.22403017
C        2.90821402       6.07438644       2.72561350       2.75112594       2.06849369       0.73157184      -6.48413490       1.17415106       2.16738648      -4.75530899
27
Lattice="6.403228 0.0 0.0 0.0 6.403228 0.0 0.0 0.0 6.403228" Properties=species:S:1:pos:R:3:momenta:R:3:energies:R:1:forces:R:3 virial="26.379653532115288 -2.8806012487978325 9.10033438939633 -2.8806012487978325 29.382052443831384 -5.3396463792146145 9.10033438939633 -5.3396463792146145 19.280274427293133" config_type=Amorphous_Bulk energy=-164.57855165130508 free_energy=-164.57855165130508 stress="0.024416754901992455 -0.06502937832992836 0.02398411968783308 -0.06502937832992836 0.031070143234814402 0.0032026411795955233 0.02398411968783308 0.0032026411795955233 0.014972140377455624" pbc="T T T"
C        6.77900612       0.47868618       5.24133300       0.62182411      -0.51536311       0.04054710      -6.74189891      -5.70226074      -2.04843861      -0.45928617
C        0.60005703       0.23489679       1.31853749       0.03648766      -1.35469381      -0.37425575      -5.00673937       1.93774046      -2.51009991      -1.10610425
C        4.41595111       4.03797556       1.69962560      -0.35862888      -0.44032778      -1.47110359      -6.30928287       8.76488281       6.90136052      -3.14450454
C        6.13229905       1.18560563       1.85754999       0.40640255      -0.30986205       0.52392238      -4.71942983       0.28041757       5.65559079       0.50839393
C        3.73526909       1.84884846       1.43560822      -2.77480149      -0.01568939      -1.77331369      -5.93708349       1.40075989      -6.42557262      -1.97105866
C        2.47068641       0.57356322       4.12551551      -0.76721122       0.74250378       3.39162525      -6.80226559       2.85086793      -2.31447092      -1.73705378
C        4.30998817       6.17792116       2.74632479      -0.02749778      -2.89312476      -0.66114914      -6.32403052       0.75268577       2.68767286       0.98926438
C        2.07801925       0.25059711       1.48716115       0.22120192      -0.22023525      -1.68765448      -6.38802952       0.59442683      -1.30181183       2.73598429
C        3.36077663       3.18796515       1.64397848       1.89544214       0.79905184      -0.99589061      -6.90796000      -5.62809583      -2.93931296       5.01139183
C        5.45377624       2.96719599       3.91844557      -2.01912701       1.41011973      -0.76404420      -6.44500701      -0.96135316       4.19790846      -2.74148275
C        3.60787101       5.79984191      -0.19437203      -1.30876461      -2.30286300       0.39194945      -4.07391824       2.49570075       0.99433193       3.30543121
C        4.73355009       1.18361837       2.27757725      -1.38147953       0.00061614      -0.87631231      -7.97266219      -0.64977487      -2.80332813       3.71119633
C        4.80613132       4.86536510       0.45540558       1.93023319       1.27748761      -1.53334029      -6.63386701      -8.13878191       1.99755948       1.05090261
C       -0.43884935       3.21408661       5.32644672      -0.70528627      -0.45066637       2.46170234      -6.79161516      -1.20768494      -7.04694738      -3.30422021
C        2.05230855       3.45708612       2.57579831      -1.04913542      -4.07497343      -0.97312346      -4.74239703      -0.42066361       0.24835328      -3.49703954
C        3.09633596       0.86196641       0.42409904      -0.99793812       0.92385049       1.04466532      -7.16596472      -1.32845080      -2.16164508      -1.30809611
C        5.82509652       4.54630758       5.93036457      -0.83393207      -3.42944708       1.24707518      -6.62497710       0.70720461       0.27675084      -2.95486789