125
Lattice="9.863761 0.0 0.0 0.0 9.863761 0.0 0.0 0.0 9.863761" Properties=species:S:1:pos:R:3:momenta:R:3:energies:R:1:forces:R:3 virial="32.021587278102515 1.3076180739033294 -49.22579916792888 1.3076180739033294 -3.3930683909570147 9.746574996632223 -49.22579916792888 9.746574996632223 40.10913663095583" config_type=Amorphous_Bulk energy=-753.0758363240317 free_energy=-753.0758363240317 stress="-0.20069992623285574 0.035796708323328964 0.040699199539166564 0.035796708323328964 -0.21861641745051447 -0.010388030746815739 0.040699199539166564 -0.010388030746815739 -0.2884320788102197" pbc="T T T"
C        2.20903000       1.39310000       3.14876000      -0.31959577       0.03019030       1.00905781      -6.55130323       0.54000701       3.41663889      -5.63807565
C        0.58885000       4.45220000       6.64136000       1.66934815       0.02618601       0.26220124      -5.72710302       3.67501926       9.72584153      -1.80852260
C        1.86665000       5.10017000       9.07746000      -1.73131230       0.00270347      -0.43811168      -6.91984339       5.04652920      -0.81492649       0.02629789
C        9.38587000       9.42193000       0.37917000      -0.55260978       0.53543269       0.47411211      -7.52461758      -0.62556019      -3.37528804       2.94643627
C        7.95917000       7.05913000       7.22031000      -0.53066369      -0.15755614      -0.12966942      -4.58330918      -7.35973863      15.74872350       1.01009885
C        0.35139000       3.90228000       0.72488000      -0.59812077       1.10323558       0.86892546      -6.33251143       1.80983011      -1.80522443      -1.30014279
C        6.60391000       9.01279000       2.13964000       0.08302341      -0.01778910       0.19903379      -7.10606020       4.48990663       2.66822886      -1.14987729
C        0.62848000       9.08018000       2.87728000       0.26749184       1.13127343      -0.25862410      -6.19112940      -4.44602535       3.23326550       6.74699834
C        3.09560000       4.14510000       3.78523000       0.19992703       0.31331485      -0.13565642      -6.90837956      12.26161529       0.67759154       3.21290101
C        5.46677000       4.57545000       0.81969000       0.04061265       1.07745539       0.40667644      -6.64455969      -0.08859091      -0.65225890      -2.46310042
C        6.28407000       4.88877000       8.13497000      -0.32588052      -0.12030521      -0.63293319      -7.43146178      -1.97785156      -1.29400886       2.21460689
C        8.54228000       8.34727000       6.79625000       0.07857322      -0.00268137      -0.48009425      -5.07779077       8.29979253      -7.25283462       0.63658875
C        8.70831000       6.41908000       3.94525000      -0.11464406       0.39128733       0.85594899      -6.68860978      -1.69518374      -1.03102582       0.23583469
C        8.52122000       1.79448000       9.85791000      -0.35990703      -0.39659423      -0.18179538      -4.36733829       2.39807203      -9.00514410       6.12848876
C        3.26116000       8.42681000       0.23594000       0.67290049      -0.86090170       0.29015309      -7.24112561      -3.17965106       3.14515572       5.51072781
C        9.82923000       1.39638000       2.03296000       0.59094264       0.15026139      -1.31889050      -5.83235430      -0.06839538      -2.59335544      -0.62850145
C        4.11380000       4.04479000       2.65210000       0.47460037      -0.13250130       0.22854776      -6.55410946      -3.75337222      -3.38175385       3.68296643
C        8.56930000       5.82276000       8.42998000      -0.05642814       0.70714555       1.30049474      -5.32002510       1.17105930      -5.99558044      10.57615921
C        6.36966000       2.36768000       1.73608000       0.17896154       0.07685020      -0.96132281      -5.36741784      -9.48420342       2.16641454     -11.57873983
C        3.64461000       4.11547000       5.16034000       1.07032497      -0.04054429       0.25173714      -6.13861606      -6.37561727       1.10170639       1.38000967
C        3.02546000       6.93959000       4.74523000      -0.32123261       0.62278230      -0.04180002      -6.39786236       4.47828211      -2.42535870       4.81666334
C        8.82587000       3.82464000       1.22613000      -0.01388167      -0.65579462      -0.35630913      -7.41335603       0.74934296      -1.15945860      -2.08254756
C        4.89017000       4.60742000       5.62565000      -0.24022299      -0.67541489       0.51039984      -5.78740478       3.06902325      -4.75579250      -1.78451251
C        5.29791000       7.17905000       3.62968000      -0.86586998      -0.71857951       0.34579905      -5.89335731       2.88896992      -0.41659160      -0.52780897
C        5.04520000       9.33507000       6.85220000       0.22271075      -0.48721277       0.16640869      -2.70897238      -9.89995390       2.30028211       5.43177291
C        5.66415000       0.80657000       0.09453000       0.48417704      -0.39609855       0.20760796      -2.05800209      -1.31550709       2.25198505      -6.49677153
C        1.37726000       2.76519000       0.83393000      -0.52766878      -0.49262367      -0.11441560      -7.85200436       0.84070008       2.18106171       0.66003563
C        1.47618000       1.17878000       4.23345000      -0.16256681       0.37980309       0.29211552      -5.76009238      -1.14513107      -7.05808627       5.81713298
C        1.99458000       9.64058000       6.62850000      -0.19334683      -0.55253034      -0.53317637      -6.92445778       0.98671027       0.21936852      -0.13786772
C        5.07615000       5.09295000       9.30767000      -0.27676486       0.25105562       0.02314906      -7.23237041       2.21764013      -0.29104195      -2.37115624
C        8.74942000       4.64828000       2.40868000       0.12012529      -0.74410696       0.19794016      -6.10996661      -0.04003348      -5.37541741       4.65452326
C        3.96063000       1.77304000       1.72565000      -0.06266444       0.32314026       1.00813724      -6.47152153       7.07361926      -2.70417577       1.27356550
C        8.80968000       2.22033000       1.34242000      -0.39810180      -0.23486739      -0.43197727      -7.01675293      -0.93281455       3.16256962       2.27673104
C        1.97204000       6.55827000       5.67177000      -0.58587915       0.48859549       0.41222707      -6.33026311       2.85908664      -3.40316757      -0.43854308
C        4.81699000       1.84809000       4.63819000       0.66956029      -0.37267035      -0.02071386      -4.37479757      -1.20814573       3.88641373       2.42512182
C        5.94733000       5.95570000       7.12974000      -0.99837378      -0.53266251      -0.05561298      -6.21197411       2.98803003       6.70512308       2.65625289
C        1.73156000       8.25881000       2.64696000       0.28348063      -0.05415357       0.49350993      -4.64323804       0.67671852       0.03009736      -0.50238625
C        6.94298000       2.31975000       3.06504000      -0.77786331       0.05150291      -0.04885489      -2.59123420      -1.64140055       2.68598936      10.04942660
C        2.58894000       3.55843000       0.89763000       0.81673584      -1.05296661       0.69021713      -6.51346584       1.85195765      -3.97760054      -1.89517014
C        7.28548000       9.69352000       8.74297000       0.40145267      -1.29367393      -0.43020762      -6.72463411      -0.73866812       0.42376281       0.39861244
C        4.94111000       0.61728000       7.56464000      -0.05872524      -0.25210417      -0.29933277      -6.70138663      -0.70188285       7.46177697       4.25455875
C        2.80472000       3.76057000       6.41319000      -0.16297868       0.67993764      -0.31192991      -6.73414522      -0.42346497       1.54360015      -5.19665188
C        9.53907000       8.03178000       5.71948000       0.08029823       0.66945407      -0.97926085      -4.93290730     -12.61558314       1.91957203      -1.12984729
C        4.63109000       7.04433000       5.10755000       0.31205421       0.65978849      -0.27755053      -7.80561494      -2.02946630      -1.31837034       0.50912660
C        5.72128000       2.46545000       5.56884000       0.70041053       0.21799706       0.06938307      -6.64306213       1.08072942       0.24415005       2.71668102
C        2.54836000       7.73354000       1.50370000       0.13774307      -0.07910081       1.12300449      -4.50913910      -2.12689051       9.95253791     -43.08257443
C        2.35429000       9.24093000       9.20386000      -0.49910851      -0.17235248       0.12894532      -4.86358423       9.38876635      -7.16726306      -4.89854891
C        7.19317000       8.23923000       9.54866000      -0.26628760      -0.23319732      -0.52279446      -6.47276991      -4.58647269       5.37863398       2.16507593
C        6.13592000       7.44645000       8.89962000      -0.48859604      -0.56781435       0.16446412      -5.71285066       1.79235897      -1.29365683      -5.54698423
C        5.21770000       3.48644000       6.59703000       0.13011108      -0.76883260      -0.52444334      -7.09158520       0.36346174      -3.74107293      -3.40715714
C        4.04943000       4.03567000       8.70636000      -0.32153122      -0.45931127      -0.15924239      -5.96319390      -2.81897558      -0.32048172       3.31346815
C        8.28478000       5.93809000       2.62668000      -0.06536132       0.22648584       0.91517407      -6.43344670      -3.58951564       6.40632653      -3.64916651
C        1.79028000       4.14045000       3.53805000      -1.07089465      -1.13790622      -0.18431841      -4.53176892      -7.70423437       5.30231254      -5.99632994
C        4.68784000       0.68270000       3.86517000      -0.26416947      -1.14418638       0.28884024      -6.50206713      -2.97229416       3.78486772       0.73709933
C        7.79499000       2.71239000       9.09539000      -1.16802279       0.07276181       0.11396557      -3.67006414      -7.10836608       8.95661860      -0.95634473
C        8.65823000       7.71487000       4.54266000       0.34676250      -0.36784957      -0.23056510      -6.47312229       1.09790821       2.17678876       0.09129036
C        1.74017000       0.69263000       9.47236000       1.34773262      -0.01019197      -0.13128888      -2.31522796       7.08252484      13.67096272       1.73821701
C        2.15962000       5.97996000       7.89103000       0.36863204      -0.37487003      -0.18761240      -6.53561498      -5.00435328      -5.16449871       2.24660036
C        7.48404000       8.74094000       4.44808000      -0.34290798       0.72441780       0.56347424      -6.88501069      -2.47337076      -5.22899237       3.17243038
C        0.66497000       4.95786000       9.72575000       0.34406346      -0.52178226       0.72731227      -7.07348582      -7.22822713       8.20805940      -0.19125582
C        7.36901000       9.00542000       6.05505000       0.19216751      -0.34472582       0.19077894      -4.69217359      -8.36320590      -0.28157967      -6.01223669
C        7.59504000       3.13046000       3.97850000      -0.07469011       0.32596830       1.09028222      -6.12325794      -0.05582962       2.55667399       3.69195664
C        1.35517000       1.76937000       2.04276000       0.60871206       0.56763890       0.04006200      -6.28851723      -3.71465640       2.20658222      -3.94461897
C        0.64363000       9.74809000       4.27706000      -0.66546140       0.86150134      -0.32776422      -7.53246420       1.89556525       1.38265728      -1.73380024
C        9.37081000       1.67245000       5.28240000       0.30832181      -0.05594936      -0.05113732      -6.11960902      -2.77348530       2.58414413      -0.09927335
C        7.96482000       0.04872000       3.93610000      -0.26773636       0.07294622      -0.90226233      -5.86646131       4.30940570       4.32235756      -3.56026194
C        1.00021000       7.55612000       5.76019000       0.33667986      -0.75151801      -0.95677889      -2.86183388       4.86481270      -6.36959761       3.38378275
C        0.62419000       3.48969000       4.01512000       0.12824390      -0.53119442       0.28436926      -6.32980720      -1.31528608      -6.15135834       4.89840886
C        9.00465000       2.04919000       8.38818000      -0.34739820      -0.30121204      -0.13453553      -4.74613367       7.69217990      -0.56697262      -4.75162727
C        0.88214000       2.23875000       5.00030000      -0.01310271       0.39152790       0.02141215      -7.63876757      -0.05897969       7.59708088      -0.65225723
C        6.40730000       3.49360000       0.81266000       0.21569541       0.55928761       0.15055129      -6.30246920       1.08037149       5.76782130       0.87243483
C        3.25919000       6.80279000       2.34419000       1.39318028       0.30877256       0.69918789      -4.27754545       7.94892851      -6.19637609      -3.33589580
C        6.13791000       8.46249000       3.50428000      -0.50998489       0.50063639      -1.01345856      -7.13596833       1.97761873       1.02731917       0.19745735
C        2.60378000       1.27255000       6.59995000       0.18942442       0.81501316       1.00682660      -6.52550497      -2.80005302      -2.70062665      -0.46501809
C        9.34524000       5.16471000       6.05404000       0.05091139      -0.00726667       0.68971246      -6.85955419      -0.40667935      -3.25218720       1.69181501
C        3.63450000       3.08264000       1.73136000       0.31757169       0.90567048       0.83534025      -6.67223646      -3.57446204       5.68831842      -4.07054688
C        8.96160000       6.89079000       0.55899000       0.55173276       0.11632818      -0.09485608      -5.83110133       5.05389466       5.17322558       0.73997155
C        1.93236000       5.20313000       6.58788000       0.27426268       0.57181634       0.25777703      -7.19226100       1.22589187       3.78719195      -0.76545228
C        1.16035000       9.01043000       5.53036000      -0.14849181      -0.34235080      -1.15600540      -5.48912419       2.24247390       6.61483957      -1.22433193
C        4.79290000       6.52634000       2.31060000      -0.34943633       0.11687888      -0.08068107      -8.13630541      -5.00946444       0.14349073      -0.61284126
C        4.89734000       6.70754000       9.47958000      -0.25812655      -0.53155588       0.09403069      -7.40495652       1.95124833      -1.28120365      -0.23884082
C        6.49064000       7.22761000       7.50309000       0.46950111      -0.54545591       0.35903632      -7.68230679      -3.02128485       0.15956939      -2.49767510
C        7.11622000       2.65853000       5.27274000      -0.08853542      -1.22248394       0.60882042      -6.68123407       2.25595771       3.35231168      -4.00278781
C        1.39384000       2.03993000       9.36882000      -0.49171089      -0.31829044      -1.26060360      -6.35908487       1.69246566       1.22699751       0.27424416
C        5.21475000       9.31957000       4.29628000       0.40356067      -0.52814280      -0.76821884      -5.92555373       1.43350921      -4.69905626       0.27596312
C        8.30993000       0.41130000       9.71003000       0.14226182       0.92848615      -0.71647812      -5.65477853       1.02583611      -1.19083623      -0.07595059
C        3.60789000       7.42937000       9.15462000       0.01487370      -0.96545115       1.13977951      -5.75269747       2.62283067      -2.81276692       2.62169224
C        2.65415000       7.26983000       3.48103000       0.79031429       0.88552019       0.37062464      -4.43542359      -3.30303753      -5.53964853      35.59236405
C        6.85875000       2.14721000       8.07251000       0.46397334       0.13350119       1.01399016      -6.50915471      -1.34899198       2.14558450       1.74986238
C        8.01507000       1.44587000       7.28144000      -0.08278664       0.17987424      -0.34955364      -6.70718795       1.00039104       1.51589291      -2.14850593
C        5.60922000       9.71389000       1.16899000       0.20743365      -0.08050589      -0.57093367      -4.70770038      -0.94695066      -9.12349669       7.49649887
C        8.62725000       8.15043000       9.85317000       0.13687835       0.32206121      -0.29322890      -5.49974971       2.91489398      -0.10188076       0.29489969
C        9.20211000       0.56000000       4.50544000      -0.58331346      -0.07770762      -0.06801899      -6.25541870       1.55224688      -5.24354174      -0.77662617
C        4.86622000       5.03519000       2.01946000       1.06521719      -0.19140991      -0.64875459      -6.73639360       2.85232837       2.78213648       0.43988027
C        9.43331000       9.77663000       1.99106000       0.57347713      -0.37064655      -0.37459014      -7.22936567       1.21274037      -1.71781198      -4.38777769
C        8.64262000       5.88884000       6.98887000       0.80697891       0.72710665      -0.78728357      -2.72903704       2.11050477      -7.01849982      -5.38165188
C        3.59360000       1.10696000       2.88694000      -0.47288348       0.57281499      -0.16688444      -6.43013960      -0.91807777      -5.10727436      -0.10161662
C        7.65377000       1.58646000       2.07483000       0.98680458       0.60770643      -0.14015737      -4.43545509      10.17696794      -7.19539446      -5.65738299
C        8.17232000       2.16048000       5.97101000       0.34218965      -0.67025918       0.49598763      -6.54942031       4.79714378      -4.77653631       6.32029688
C        5.31671000       1.44750000       1.32373000      -0.46159783      -0.29329305      -0.65904460      -5.33460027      -3.38566632       7.91730714       7.89952055
C        5.21182000       5.89040000       5.94509000       0.42375471      -0.09710584      -0.18149087      -6.78485675      -3.25408467      -1.44743354      -2.61370506
C        6.09668000       8.44025000       6.60182000      -0.59688980       0.43516864       0.72030224      -4.36361338      15.90679560      -7.70774953       3.07404418
C        7.47656000       5.10336000       9.00391000      -0.00277590       1.25094160      -0.04144053      -6.13350273      -3.95873878      -0.29331697      -3.41564459
C        8.95949000       4.02492000       3.78013000       0.12824528      -0.38683778       0.11398791      -7.74012180       1.62056942      -3.98189944      -0.39421614
C        7.61022000       3.98940000       0.01784000      -0.18929430       0.38376644       0.08276841      -7.21614616       5.24952235      -5.42928395       3.63954393
C        3.81510000       1.59515000       7.28517000      -0.81411329       0.12315948      -0.36418483      -6.55717117       0.64108014       1.78600473       1.80054881
C        6.37482000       3.51459000       7.48096000       0.50618723       0.45176069       0.37361587      -5.83761461      -3.98491578       0.89970940       0.26796210
C        9.00808000       5.19475000       4.67736000       0.14992923      -0.48590621      -0.60357716      -6.49868500      -0.06081636       2.14468708      -0.66797496
C        5.98730000       0.94108000       8.63601000       0.35379994       0.39431337      -0.12666410      -6.94357018       3.63160093      -1.40638188      -9.25035674
C        0.58138000       2.38421000       8.24396000      -0.71607961       0.30487847       0.56944836      -6.68155407      -9.90603145       2.42532204       3.01436043
C        7.89369000       6.80280000       1.47064000      -0.01976571      -0.25831885       0.76074823      -6.11149557       1.19517635      -3.34712613       3.78006556
C        2.72431000       7.28819000       8.06256000      -0.17855503      -0.49473916      -0.14075677      -6.09612687       4.21625039      -1.65156451      -4.59447768
C        3.90273000       3.18368000       7.34898000       0.04450040      -0.08088164      -0.73882200      -7.39135264       5.26247705       1.42463048       1.58665400
C        5.25091000       7.32476000       1.03304000       0.82599421      -0.58996203      -0.58275826      -6.65349909       3.09344715      -1.24541863       2.50441841
C        5.02587000       8.48793000       5.57064000       0.42389345       0.48056550      -0.73116656      -4.72927893      -8.37400447      -0.85315798     -11.35206309
C        1.83466000       2.56621000       6.19981000      -0.57473263      -0.42540527       0.85080136      -7.15611474      -3.02977770      -3.44320462      -0.43479097
C        6.83370000       7.86645000       1.21257000      -1.14847640      -0.37611262      -0.74507739      -6.61883363      -2.98736607      -3.50122258      -1.08096070
C        2.41464000       8.72719000       7.77805000      -0.31692671      -0.50762768       0.35056386      -5.97477032      -3.19332751       2.79109698       0.76304309
C        7.96184000       9.71253000       7.32665000      -0.84267558      -0.27833861       0.36119520      -4.90712879       0.02981372       8.27910398       5.20445109
C        4.61608000       8.68865000       0.92926000       0.22565982       0.60252446      -0.37089273      -5.22598273      -1.67101251      -2.15079546      -0.53451488
C        7.89271000       0.09496000       2.42150000      -0.49927142       0.34323275      -0.79871669      -7.18999199      -2.16248998       1.63038967       2.04523764
C        9.47434000       5.98715000       9.51123000      -0.46056587       1.07279346      -1.35128996      -6.54239638       1.96371234      -2.71453448      -3.92412119
C        0.83535000       3.21400000       7.13215000      -0.16094178       0.46541047       0.28358668      -5.40188377       4.75724877      -9.37657533      -2.73224100
C        0.88704000       9.49386000       9.62792000      -0.13088472       0.20404077      -0.25651588      -2.51717890     -14.07435985      -8.83882015       2.50761669
C        2.86259000       4.23600000       9.54616000       0.04429840       0.29571159       0.52853695      -6.78876989       0.37641434       1.64868498      -1.99086654
125
Lattice="9.863761 0.0 0.0 0.0 9.863761 0.0 0.0 0.0 9.863761" Properties=species:S:1:pos:R:3:momenta:R:3:energies:R:1:forces:R:3 virial="32.021587278102515 1.3076180739033294 -49.22579916792888 1.3076180739033294 -3.3930683909570147 9.746574996632223 -49.22579916792888 9.746574996632223 40.10913663095583" config_type=Amorphous_Bulk energy=-794.381877050084 free_energy=-794.381877050084 stress="-0.10659171536167368 -0.03947291801472451 0.05829780608600027 -0.03947291801472451 -0.06380623313482794 0.003991419169840027 0.05829780608600027 0.003991419169840027 -0.08497170583035353" pbc="T T T"
C        2.12523151       1.33384020       2.93652338       1.83854051       0.75684992       0.93065994      -6.82933932       5.04391624       1.90869439      -4.64010597
C        0.65437640       4.76700399       6.68176862       0.69936805      -2.59706776      -0.70354923      -6.16180336      -4.32295436      -7.33969855       0.88248352
C        2.09762677       5.41168435       9.20423070       1.36543673       0.76935196      -0.47743705      -7.07201031      -2.64650668      -1.68074375       1.41469374
C        9.41272161       9.18210871       0.20896915       0.31946420      -0.38839056      -1.89211881      -7.50022353       2.97960308      -1.77726929       0.41051655
C        7.74989687       7.43530992       7.03241891      -0.42920857      -0.64983306      -0.25239857      -5.64579342       9.60532933      -6.32917077      -1.15087074
C        0.50919713       3.98854230       0.88498482      -0.97895064       0.13777841      -3.22401910      -6.53430988       6.49339457      -2.94489536      -1.70283781
C        6.73851013       9.03261561       2.22222361       0.60033661      -0.31715265       0.29433412      -6.80326379      -0.44414456       0.65166902      -0.25505788
C        0.67575186       9.07705728       2.79895541       0.87042508       0.50728410      -0.75887971      -6.36351641       6.26370836      -5.33548742       1.04754637
C        2.98169953       4.31954055       3.69761368       1.37178815       0.78296492       0.40265550      -7.19435312       2.61195403       3.54700147       1.12611809
C        5.49367779       4.52159314       0.73605402      -0.14733614       0.52255115      -2.10085859      -6.62770424       0.50931457       3.11461926       1.60806046
C        6.31594702       4.86693105       8.08520203      -1.41047239      -0.11931609      -1.81466630      -7.77325129       0.26280988       1.36257169       0.82653885
C        8.68753900       8.63958315       7.00327550       0.09490533       2.19115806       1.03401511      -4.88476303       2.19127631      -1.85100022       0.07157118
C        7.96277569       6.25611700       4.18566831      -1.73838095       0.72526753       0.53264883      -6.48185149       0.52170328      -0.88988824       4.58481385
C        8.56068323       1.60155060      10.02066057      -0.72740711      -0.53327040       1.47982348      -4.84685673       0.52193948       1.14407840       4.37470298
C        3.29052148       8.59840553       0.24294367       0.10724562       1.01812514      -0.59531295      -6.84048795      -5.35486654      -0.98180794      -1.31255164
C        9.88656273       1.21525369       1.89300686      -0.42804331      -1.74544096      -0.42255873      -5.79785333       0.89055560       2.16480339      -3.19513066
C        4.01416230       4.24992002       2.64195050       1.36658362      -0.70685881      -0.23280304      -6.44823668      -2.71565630      -2.71441140      -2.53104758
C        8.69201337       5.66591620       8.48246261      -0.93804729       0.85883493       1.72282875      -6.37367025      -1.40264345      -5.63984032      10.57451710
C        6.42836046       2.31441161       1.62659424       2.41460087       1.71448192       0.89221411      -6.19424898       3.56441852       4.75610610       3.11730072
C        3.47861895       4.14509798       5.01330761       0.36644798      -0.89688596      -0.42375623      -6.42980356       1.57577844       0.00591455       3.69524550
C        3.13358610       6.42322790       4.56654095      -1.15894274      -2.92847146       1.74373343      -6.14443900      -3.09511536       0.41739001      -3.19273229
C        9.05764888       3.70951290       1.45649704       0.92987148      -0.44185395       1.40284373      -7.68038675      -4.60071284       2.80585020      -3.26655322
C        4.89055125       4.26459595       5.43562647      -1.69895404       1.47597477      -1.56354316      -6.21534040       1.56417353       3.70649590      -1.13159669
C        5.26855798       7.05273861       3.43118291      -0.14673778       1.21362945       1.28949777      -5.79077916       0.83190670       0.16806260       0.74361667
C        4.56642446       9.34714747       7.58431475       0.85044558      -0.00545426      -1.46782166      -4.19973411       7.80613907      -2.39692210      -4.49880770
C        5.16128464       0.89746666       0.02107159      -0.41659052       1.26157010       1.27391186      -3.53942342      -1.87067590      -1.28404857       4.55259262
C        1.62178019       2.79690317       0.74399120      -0.27900088       0.04238557      -1.05536437      -7.96165413      -6.74617657      -0.55057202      -0.00990600
C        1.54445754       1.14757128       4.15090662      -1.10074901      -0.85368091       0.24582922      -5.94218201      -2.32183494       1.65082401      -1.91328027
C        2.29355760       9.67680873       6.56513121      -2.61199816      -0.95954119      -2.22298464      -6.95800902      -1.16637045       2.21468416      -2.55628264
C        5.21563148       5.10381721       9.16085113      -0.43516212      -0.52041333      -0.96995873      -7.44788061       1.09066200      -0.21462873       0.76978357
C        8.63528841       4.47260657       2.70737508       1.11393817       1.18416930      -0.37357936      -6.23398171       0.48990089       0.65803868      -2.95453312
C        4.13313104       1.96153226       1.89581450       3.14556743      -0.54598671       2.37013182      -6.76290244       1.88660038      -1.38833943       0.66250679
C        8.84284417       2.15517923       1.56230055       1.89212786      -0.15054613       1.03627241      -6.92626028       1.21964139      -0.78900672      -2.21861879
C        1.92633122       6.33513858       5.41993958      -0.19474020       0.62640716      -0.46345676      -6.74217063       3.06254719       0.74388867       3.66478987
C        5.09216562       1.78146679       4.49066490       1.34965009      -0.64922860      -0.83216869      -4.42031547       1.73095662       0.66916560       1.20158196
C        6.05111574       5.98889311       6.83035618       0.61336445      -1.44283655       0.85059180      -6.36372141       1.08211446       0.19270454       4.18835515
C        1.79574864       8.09653752       2.38803436      -1.97939182      -1.26078878       0.95704635      -5.19805303      -1.95060272      -0.50108454       1.38595642
C        6.81771126       2.47009491       3.31911106       0.46439658      -1.42065238      -2.20853872      -3.73793862      -0.37563792       0.12873465      -1.83406277
C        2.81291852       3.48001554       0.72502094      -0.56208128      -0.88575549       0.30804394      -6.49345491      -3.14673782       1.18791696      -0.63307168
C        7.16919890       9.74462230       8.68462026       1.57172113       1.37965235      -1.28065995      -6.54666098       0.11437070       0.15778344       2.94754767
C        4.87762930       0.83809274       7.66422172      -0.30271250      -0.90662034       0.23742580      -6.42594350      -2.78767830       1.23874398       2.33233567