27
Lattice="5.407371 0.0 0.0 0.0 5.407371 0.0 0.0 0.0 5.407371" Properties=species:S:1:pos:R:3:momenta:R:3:energies:R:1:forces:R:3 virial="50.03956533484775 -1.3859214744663537 15.835384845385583 -1.3859214744663537 57.7188616270723 13.073109340387933 15.835384845385583 13.073109340387933 43.34004142006139" config_type=Amorphous_Bulk energy=-148.98051490516312 free_energy=-148.98051490516312 stress="-0.6244686165360716 0.08458033284837063 -0.19136271700806717 0.08458033284837063 -0.8318895518448683 -0.29268940476472105 -0.19136271700806717 -0.29268940476472105 -0.601744969481613" pbc="T T T"
C        1.21052000       2.02569000       5.31804000      -0.16877812       0.62501817       0.70275358      -5.34177477     -10.91006107      16.61950861      10.34515667
C        1.66093000       2.17594000       2.38906000       0.19728380      -0.26374064       0.25814752      -2.68632232      22.18243814      -0.68330198       7.80681021
C        0.01590000       5.25937000       3.11729000      -0.30457730       0.56256114      -0.04363456      -6.06664029       2.58261049       5.44700917      -6.34636259
C        3.82024000       3.16460000       0.53518000      -0.11403429      -0.47343728      -0.50256947      -5.92051358      -7.36431904       1.97377928      -4.33484491
C        2.37851000       1.89385000       4.62271000       0.58757623       0.23221956       0.25030245      -5.08754497      10.35915789      -3.21573920       0.37003528
C        2.21330000       4.78296000       1.74481000       0.55916417       0.28162044      -1.46567461      -5.99948553      -0.03654731      -0.02495492       9.81174468
C        3.24993000       2.07202000       1.45622000       0.14152465       0.31548969      -0.43784328      -6.31983708      -3.78684347       1.13593560       1.53297220
C        3.13398000       0.16564000       2.71302000       0.12711950       1.08477059       0.34761027      -6.11955488       2.45305408       0.66854927       0.43311149
C        4.96227000       3.96407000       0.70854000       1.04209234       0.43989522      -0.11990919      -6.11621810       2.73518778      -4.17895729       7.26692556
C        5.20304000       0.85066000       1.72184000      -0.08885269       0.06033335       0.61143124      -6.18930229      10.64078930     -24.99238133     -11.47273781
C        4.83817000       5.38629000       0.67172000      -0.69134433       0.14032668       0.49573520      -6.12307640      17.39430770     -10.29659117       0.80741674
C        0.52252000       3.08168000       1.88921000      -0.70715049       0.11272480       0.47276324      -5.15889649      -7.43827628      10.58147574       3.47807164
C        2.95919000       3.44128000       4.63625000      -0.34451119      -0.13923804       0.20271476      -5.92334648      -1.41807846     -10.21190610       5.13918509
C        0.93954000       1.69916000       1.34142000       0.17868071      -0.04347732       0.15014358      -4.11292328      -7.17852817      -7.48845924     -12.20617609
C        1.43544000       4.97141000       4.95090000      -0.39908657      -1.39495381       0.17044092      -4.48997106      -1.66998779       6.16757365       6.47636390
C        5.02995000       2.44006000       3.02307000       0.22218875       0.38620080      -1.27357968      -6.21030242     -10.43754253      20.75332539      17.36282969
C        0.91560000       0.44766000       4.06461000       0.15962818      -0.01943584      -0.48765924      -5.68015671      -3.92105744      -7.33131360     -11.43264839
C        4.16581000       1.43873000       2.39392000      -0.43616999      -0.53533589       0.36606444      -4.91087195      -7.12197029       0.96887051      -2.69751561
C        3.87665000       3.58049000       3.57388000       0.76144712       0.44249489      -0.30819933      -5.20757428       2.68138886       3.06574607      -1.69977105
C        1.23964000       3.70395000       5.04965000      -1.13337299      -0.45439543       0.55829239      -3.27629871      -0.27596221     -15.61614310      -6.13095585
C        2.21111000       0.91577000       3.43120000       0.11488043      -0.53582110      -0.19318985      -5.67645172      -7.86255404      11.89082794      -1.42421593
C        4.10384000       5.05781000       3.64362000       1.08806683      -0.54126674       0.39638272      -6.44450540       1.41116157      -4.45714070       0.03471420
C        2.06432000       0.02000000       0.58526000      -0.93464128      -0.79009508      -0.75394606      -5.97171901       8.19638074       8.06720049      -0.71083546
C        4.26171000       0.64796000       4.91079000      -0.61848064      -0.32012072       0.41451872      -6.50650013       1.41119770      -3.91542852      -2.03614759
C        0.95447000       4.36528000       2.58802000       0.18253502       0.10067168      -0.21960188      -5.24437225       3.70458600      -9.22180895      -8.60765632
C        5.24245000       1.72322000       4.32161000       0.87044335       0.71006988       0.57028290      -5.68460104       6.78246972      -2.02218493       3.72166779
C        3.09419000       1.02028000       0.30139000      -0.29163120       0.01692100      -0.16177679      -6.51175378     -23.11300187      16.31650930      -5.48713757
27
Lattice="5.407371 0.0 0.0 0.0 5.407371 0.0 0.0 0.0 5.407371" Properties=species:S:1:pos:R:3:momenta:R:3:energies:R:1:forces:R:3 virial="50.03956533484775 -1.3859214744663537 15.835384845385583 -1.3859214744663537 57.7188616270723 13.073109340387933 15.835384845385583 13.073109340387933 43.34004142006139" config_type=Amorphous_Bulk energy=-178.11855768945964 free_energy=-178.11855768945964 stress="-0.32262569359287496 -0.03924623712479881 -0.08572383166175773 -0.03924623712479881 -0.2147362112018088 0.07276764722179088 -0.08572383166175773 0.07276764722179088 -0.09573206796733788" pbc="T T T"
C        0.85720858       2.18821322       5.29794594      -1.76125848       1.65846074      -1.68337277      -5.59588364       5.42932283      -0.40229432      -1.76831999
C        1.99784349       1.94339802       2.00784025      -0.31690995       0.75824727      -0.98150781      -5.28226574       0.77606442       0.36612786       2.45677873
C        0.18427361       5.33866252       2.93465580       1.78239182       0.33223165      -0.21194991      -6.05928220      -0.65246607      -9.49215877      -5.36619770
C        3.34395942       3.54925783       1.00015136       1.48942192      -3.71665348      -1.37541619      -7.60052793      -1.20662676      -0.45792288      -1.79886799
C        2.39252973       1.96207726       4.58297096      -1.00497522      -1.96498796      -0.80126057      -6.26729413      -4.49508110       1.51323668       1.51716425
C        2.46462388       4.56657293       1.73713704       0.48015381       0.50826387       0.60849634      -7.13457104       0.86285305       2.27422648       3.66766040
C        3.15861138       2.15253646       1.32541320      -1.24371166       1.02921010      -1.69723459      -6.44639788       2.40587369      -3.15927354      -3.94079064
C        3.16421981       0.16243801       2.81977944      -1.14122248      -1.78417864       0.26487523      -6.24849743       1.05018125      -0.12913281      -1.21953003
C        4.72190061       3.86541675       1.19587921      -1.21644964      -0.97256387      -0.43272837      -6.46931941       3.43994824       1.89013806      -2.40724257
C        5.39397201       0.63788072       1.62241167       1.15992096       0.27139760      -1.27772713      -6.79303014      -1.29034800       4.41309582       2.62214939
C        5.25056660       5.09289761       0.54123292       0.13019934       0.10619582       2.90267216      -7.26709409      -1.38277697       0.89243025      -2.54591231
C        0.22390444       3.10400816       2.14979480       1.30410722       2.76886042      -0.32859693      -7.15777347      -1.51738509      -2.40827828       0.43101189
C        2.85866102       3.40085549       4.76484409       3.32924330       2.37709389       0.64140769      -7.02930016       3.34986640      -6.45224798       0.08022254
C        0.82816086       1.92550404       1.32344911      -0.20146793       1.08660079       1.11975322      -7.35688340      -7.65270283       0.77244892       0.40765528
C        1.16738852       5.10024525       5.08786536       0.82091566      -0.50473267       1.67646061      -7.18455427      -4.26140560      -0.81419951       3.00104449
C        4.81428735       2.38053160       3.27048244       0.68594483      -0.15529034      -0.63543011      -7.35113151      -6.04519566       1.73592165      -1.18191952
C        0.84610188       0.56058965       3.91397880      -0.07353191      -1.17056948       2.05785892      -5.70635977       6.53283096       7.76289970       1.49011953
C        4.01244521       1.40500779       2.26145130       1.06261326       3.05198178       0.79987653      -6.08679528       4.36954618      -1.05025425      -0.89759531
C        4.01191461       3.51689261       3.84228408      -0.73079048      -0.14852442       1.69312247      -6.34554448      -0.68875440       3.43603453       0.79926456
C        1.55618386       3.92115901       4.33763667       0.39870865      -0.43999041      -0.16505543      -5.79472414       0.85405566       2.25350738       0.10815718
C        2.12608667       1.28676311       3.24626312      -3.78599839       0.33637113       0.48356669      -6.78292077      -0.96460727      -4.58667410       4.33895449
C        4.29454582       4.91220869       3.59078774       2.68273269       0.06923076       2.10297585      -7.08617316      -1.73345195       2.82663434       0.87875574
C        2.12924473       0.16999538       0.68926797      -1.52453565      -1.43772316       2.15042882      -5.62914226      -2.75103447      -5.09594799      -3.64371202
C        4.33917636       0.49028404       4.89561048      -2.53372065      -0.10811811      -1.98225059      -6.97930991       0.45489785      -3.48306347       1.59983169
C        1.17531528       4.08224818       2.87241572      -1.35241961       1.45106400      -2.49184761      -6.87248023       0.61037927      -0.01724433      -5.17029360
C        5.31013205       1.57389607       4.35066516       3.36976408       0.28266347      -1.34208192      -6.64146281      -0.04971970       0.79475878       2.27006532
C        3.07996219       1.00628959       0.04101538      -1.80912548      -3.68454075      -1.09503458      -6.94983839       4.55573608       6.61723180       4.27154619
27
Lattice="5.407371 0.0 0.0 0.0 5.407371 0.0 0.0 0.0 5.407371" Properties=species:S:1:pos:R:3:momenta:R:3:energies:R:1:forces:R:3 virial="50.03956533484775 -1.3859214744663537 15.835384845385583 -1.3859214744663537 57.7188616270723 13.073109340387933 15.835384845385583 13.073109340387933 43.34004142006139" config_type=Amorphous_Bulk energy=-180.44663785432928 free_energy=-180.44663785432928 stress="-0.29419475517982274 0.04751193163331027 -0.09322978461781196 0.04751193163331027 -0.21004290331083247 0.06838616595162658 -0.09322978461781196 0.06838616595162658 -0.0890118572626138" pbc="T T T"
C        1.02635746       2.09704794       5.33097055       0.42246820      -0.79581817       1.27971203      -5.82887247      -0.35392649      -0.54226539       1.65552843
C        1.99265169       1.91659063       2.10133290       0.29891388       0.71008002      -0.82026383      -5.58152145       5.42297806      -0.14996513       1.30581533
C        0.18209528       5.21431326       2.78401341       0.24640396      -0.56285015       0.74311325      -6.47751665       0.53600574       0.49240518       6.73465689
C        3.29578674       3.54888382       0.87791505      -0.84205090      -0.49333886       0.02129312      -7.38856104       0.74550238      -1.45185456       1.49213490
C        2.47798699       1.96783686       4.68876086       1.03515150      -1.17649636       0.89051884      -6.50965614      -5.10010746      -0.09854037       1.42836760
C        2.40084928       4.59889412       1.73196450      -0.72657992       0.71419174       2.23364642      -7.26953147       1.97836273       0.52715283       2.57597629
C        3.21405754       2.13103042       1.27464173      -0.71643933      -1.20813522      -0.42507305      -6.73465602      -1.43320763      -3.46612863       1.74253778
C        3.11822821       0.21300125       2.89570055       0.20701642       1.30725514      -0.43598614      -6.22004646       2.09265956       0.95865503      -4.25875014
C        4.76346190       3.75265165       1.00510732       0.61395539       1.86947910       0.16906583      -6.33990506       0.07244272       4.94116267      -1.92432661
C        5.38921432       0.67201714       1.70046894      -0.08298985       0.36461054       0.53055921      -6.71838372      -3.56764440       1.72502943      -5.48826924
C        5.23288626       5.07679018       0.47001573       0.55688871      -0.36726344      -0.09345333      -7.35411709      -0.00572068       0.75853886       3.65759417
C        0.22217910       3.05299750       1.98935670      -1.73985490      -1.28394067      -1.25258379      -6.90573911      -5.63973985       2.38384359       4.71647330
C        2.85756595       3.35252661       4.79063411      -0.80640241      -0.66978589      -0.65267806      -7.39550308      -0.18857380       0.87971865      -2.94338650
C        0.82033148       1.95133399       1.42813459       0.56600859      -0.74676703      -0.87730284      -7.25618406      -0.32807884      -4.29440962      -4.09313863
C        1.11093068       5.06750229       5.15147176      -1.32815650      -0.57649271       1.24519198      -6.99888435      -3.21632055       3.07929977      -5.72961426
C        4.70235135       2.52175193       3.36240585       0.17135061       0.98018992       1.03329992      -7.20699195       1.60149467      -0.63571747      -1.81395573
C        0.81961551       0.57762993       3.87734327      -0.16202844       0.41026532      -2.53074821      -6.25568122       1.62061433       0.83652565       1.50372478
C        4.10544679       1.47700342       2.23592250       0.30532766      -0.61559310      -1.43874600      -6.04521174       0.87308107      -1.99262123       2.48815933
C        3.94773019       3.60828978       3.91373615      -0.73943919       0.66107647      -0.12144733      -6.48024523      -1.34127612      -1.24819157       0.37628852
C        1.58283958       4.05675560       4.23641728       0.29545906       1.56776096       0.26716790      -5.55698521       1.26421750      -3.58349355      -0.28641731
C        2.09913366       1.27336716       3.47967262       1.42075886       0.67244902      -0.30807477      -6.96148915      -0.77834940      -2.87266389      -3.74609723
C        4.23349188       4.93954408       3.63435063       0.23926574      -0.84098505       0.02778143      -7.13050732       1.19679974       3.57521188       0.43156257
C        2.15416000       0.02989160       0.53960980      -0.14722284       0.64303115       0.92052559      -5.99154708       2.57462152       0.77631124       4.59869330
C        4.33595915       0.44128883       4.98974902      -0.25375193       0.01750069      -0.67475433      -6.87588313       3.80838681       1.24320315      -3.85571432
C        1.14786948       4.09494673       2.61319766       0.21254878       0.48302678       1.23933978      -7.05786049       2.22658622      -0.94925391       0.14109522
C        5.29415797       1.63439762       4.47906393       0.34797745       0.15542296      -0.09694176      -6.72046169      -0.34456527      -0.86966993      -3.74395390
C        3.17588156       1.02754567       0.12127261       0.60542140      -1.21887317      -0.87316188      -7.18469547      -3.71624255      -0.02228267       3.03501548
27
Lattice="5.407371 0.0 0.0 0.0 5.407371 0.0 0.0 0.0 5.407371" Properties=species:S:1:pos:R:3:momenta:R:3:energies:R:1:forces:R:3 virial="50.03956533484775 -1.3859214744663537 15.835384845385583 -1.3859214744663537 57.7188616270723 13.073109340387933 15.835384845385583 13.073109340387933 43.34004142006139" config_type=Amorphous_Bulk energy=-183.02633708224815 free_energy=-183.02633708224815 stress="-0.2668664153844636 -0.023885903418406726 -0.06968476461295954 -0.023885903418406726 -0.2148574294631993 0.07204419968249859 -0.06968476461295954 0.07204419968249859 -0.0694069780509987" pbc="T T T"
C        0.94162976       2.13185277       5.32700626      -1.50870801       0.80885904       0.44187086      -5.93114708      -0.41526627      -0.89388634      -0.56430106
C        1.97427969       1.92665520       2.14667371      -1.19227996      -0.46575943       1.07970481      -5.64788309       1.66116669       0.33238674      -1.82386455
C        0.19954349       5.20792954       2.85693824      -0.71874267       1.01915451      -0.29802201      -6.36769898       0.03565223       2.05043611       0.25127625
C        3.34020066       3.43024376       0.87376873      -0.40505727      -1.50771007       0.37669721      -7.38914572      -0.18586182       2.91291793       0.51445739
C        2.34162022       1.96701101       4.70705424       0.61326647      -0.28892225      -0.62724039      -6.73996570      -1.00012950      -1.53199348       0.96633255
C        2.50340785       4.59736975       1.77527309       0.19102424       0.82158425       0.26845029      -7.21524145      -1.76184349      -1.60467099       0.76881616
C        3.19976131       2.03012504       1.34172050      -0.33689644      -0.89638453       0.27989895      -6.96908288      -0.78109318      -0.48463024       0.37288632
C        3.21523958       0.21338296       2.81819613       1.70590368      -0.02059522      -0.16313023      -6.37221960      -1.50201099       0.92026927      -0.72026538
C        4.74004903       3.87853451       1.06041893      -1.16962153       0.35857741      -1.41727404      -6.37201088       0.61384058      -0.48557506       0.68227919
C        5.30432834       0.69724150       1.66149746      -0.60278645       0.98009601      -0.41527282      -6.95643048       1.47153200       0.62460324       1.06764104
C        5.19747781       5.19115519       0.51857107      -0.18559630      -0.79446634      -1.04910369      -7.37572479       0.27657997      -3.49018576      -2.09171936
C        0.17082636       3.16037419       2.13820660       1.02652209      -1.06713813       0.44602796      -7.09767957       1.50840230      -1.29921461      -1.96889605
C        2.84807862       3.31463885       4.74318755       0.27574011       0.62879312       0.70102397      -7.58455261       1.93594088       0.77306607      -1.36247850
C        0.73680657       1.92741218       1.38571844      -0.28065606       0.06895335       0.57000007      -7.57084568       0.23244185       1.00994225       0.96165239
C        1.12495832       5.06838814       5.05854085       0.10761719       0.90339244      -0.89692045      -7.03603123      -1.97978606       2.60893142       4.85221213
C        4.74265276       2.50887148       3.24111025       0.67484011      -0.98095057       0.95413622      -7.56278731      -1.79633550      -0.42237779       1.75326055
C        0.88115692       0.59383885       3.89306463       0.39649591      -0.46174267      -0.74911246      -6.13910073      -0.35015166       0.04890886      -0.69588342
C        4.10272686       1.42345657       2.33483241       0.55252424      -1.31317347       0.13840127      -6.24945431       0.28987028      -0.49833898      -3.69769574
C        3.95433282       3.58724998       3.83573478       0.65483804       0.05858314       0.32648486      -6.56067731      -1.54390803      -0.50384305       0.97548791
C        1.65213271       4.05729185       4.23576082       0.64622022       0.90938160      -0.80842903      -5.87543258       0.41446681      -3.41662522      -0.00076025
C        2.12075891       1.22805543       3.42604963       0.25324547      -0.46226631      -0.24964193      -6.91306627      -0.11212609      -1.30968677      -0.79334913
C        4.23539641       4.96643592       3.57205894      -1.34046505       0.44872392      -1.18878399      -7.26835276       2.90381964      -1.32093767       3.11325289
C        2.15020657       0.03078466       0.60823441      -1.18532634       0.27019487       0.08981539      -5.98796023       0.50374878      -0.19566445      -0.74837469
C        4.38706722       0.42647164       4.85997673       1.90108527       0.54153133       0.05810130      -6.89348786      -2.93128049       2.92359017       1.94332103
C        1.26393828       4.09608759       2.75625957       0.46816557      -0.88219501       1.32115254      -7.07909889       0.34634101      -0.55370842      -3.13783095
C        5.30078876       1.62010896       4.34850585      -0.12843188       0.62374142      -0.05619339      -6.66295232      -0.37332698       1.39115504       0.43468988
C        3.07385414       1.01486249       0.17887018      -0.41292063       0.69973760       0.86735872      -7.20830677       2.53931704       2.41513175      -1.05214661
27
Lattice="5.407371 0.0 0.0 0.0 5.407371 0.0 0.0 0.0 5.407371" Properties=species:S:1:pos:R:3:momenta:R:3:energies:R:1:forces:R:3 virial="50.03956533484775 -1.3859214744663537 15.835384845385583 -1.3859214744663537 57.7188616270723 13.073109340387933 15.835384845385583 13.073109340387933 43.34004142006139" config_type=Amorphous_Bulk energy=-183.41235822715672 free_energy=-183.41235822715672 stress="-0.25467342867843357 -0.008482365512875296 -0.058349553162934165 -0.008482365512875296 -0.15358357866491887 0.07560864030553596 -0.058349553162934165 0.07560864030553596 -0.08153298765106705" pbc="T T T"
C        0.90961987       2.11764994       5.32575048       0.86158129       1.10350272      -0.12217268      -5.82189360       2.23374144      -1.04097282       0.00033382
C        2.00532842       1.93926578       2.10380736      -0.85909886       0.31118275       0.34227804      -5.68304231      -0.47597333      -1.62561574       0.52186206
C        0.17399646       5.24238162       2.83358007      -0.02188117      -0.30437329       0.58200930      -6.36539413       2.00012524      -0.46700230       2.26332639
C        3.27851136       3.53000664       0.92681636      -0.16442111      -0.03950065       0.02196902      -7.35390652       2.92629579      -0.02354797      -0.99538255
C        2.37261041       1.91669407       4.70782403       0.62265870       0.12948917       0.31603987      -6.71688095      -1.80879794       0.79747396       0.34654265
C        2.49108755       4.58978342       1.84747099      -0.56007292      -0.34692151       1.10568124      -7.47826760      -0.53297888       0.03847384      -0.67348693
C        3.18609449       2.06494675       1.29532094       0.67669168      -0.14411616      -0.84946441      -6.67379713       0.61206363       1.14898621       0.64602890
C        3.28002718       0.25895140       2.74826574      -0.66401648      -0.78066707      -0.17388051      -6.61985068      -1.19626788      -1.33079672       3.31306496
C        4.73761318       3.88299152       1.03072022       0.99820466       0.27159965       0.33817578      -6.36841783      -0.70868573      -0.89257996       0.94294582
C        5.32092944       0.67886374       1.65830902       0.14509525      -0.22010851      -1.30097415      -7.06383446       0.94424022       0.32881955      -1.82009165
C        5.21447163       5.17802707       0.48296251       1.94405456      -0.34616531      -0.13816723      -7.48654215      -0.35699415      -2.50994827       0.79139094
C        0.17352822       3.10681932       2.07277070       0.93478827       0.70968760      -0.39698901      -7.03403030       0.03288875       0.83816232       0.06943893
C        2.85112280       3.31755296       4.77759899      -0.32074992      -1.36365745       0.71268681      -7.44821131      -1.51436993       0.38385717      -1.41234811
C        0.73381174       1.89900284       1.39143071      -0.21628385       1.13116833       0.63451754      -7.58830579       1.60541628       1.31927878      -0.40322790
C        1.08031718       5.07261619       5.09819385       0.26417142      -1.33499563      -0.29378501      -7.25543077       2.40224453       1.53594425       3.12661185
C        4.71156582       2.49682046       3.27803453      -0.10588242       0.13088837       0.43506876      -7.39437899      -0.94425284       0.45675814      -1.16755097
C        0.92316041       0.56803731       3.89038573      -0.47784931       0.58542970       0.79016559      -6.13625358      -1.84435651       1.83622884      -0.48515582
C        4.11259600       1.39634929       2.16786535      -0.40789004       0.31866027      -0.44737166      -6.13618146       0.64772822       1.20573855       2.77162172
C        3.91880811       3.60143907       3.86023012      -1.13001071       0.28596649      -0.41854959      -6.57986321      -0.47678390      -0.04240879       1.26203556
C        1.58394129       3.99459478       4.25427228       0.47493866       0.58238878      -0.77791552      -5.78240532       0.77548228      -1.70905028       0.37829449
C        2.18470007       1.19328305       3.39732940       0.17773325      -0.70940717       0.23737403      -7.00360373      -0.84219217       0.31888647      -0.95204395
C        4.25266507       5.01239076       3.68217010      -0.11416150       0.03659921      -0.13515740      -7.37090572       0.17576412      -1.88269693      -3.40108223
C        2.18893372       0.03296741       0.65579934       0.46897899      -0.35511075       0.08374388      -5.97996225      -1.56267742      -0.08644042      -2.56447884
C        4.35049203       0.43111033       4.92470053      -0.09357274      -0.18259103       0.35914226      -6.99971322       0.03732958       4.41884924       1.34134140
C        1.26270966       4.08198056       2.70863104      -1.68193487       0.83394676      -0.73223061      -7.19500942      -0.99904898      -0.10383079      -0.62114746
C        5.26587918       1.63099146       4.38397889      -0.32759267      -0.59895146      -0.33990808      -6.69324116       0.79292710      -1.11134857      -1.42831586
C        3.13869873       1.06031227       0.19901073      -0.42347816       0.29605618       0.16771374      -7.18303462      -1.92286752      -1.80121777      -1.85052721
27
Lattice="5.407371 0.0 0.0 0.0 5.407371 0.0 0.0 0.0 5.407371" Properties=species:S:1:pos:R:3:momenta:R:3:energies:R:1:forces:R:3 virial="50.03956533484775 -1.3859214744663537 15.835384845385583 -1.3859214744663537 57.7188616270723 13.073109340387933 15.835384845385583 13.073109340387933 43.34004142006139" config_type=Amorphous_Bulk energy=-183.60049475901502 free_energy=-183.60049475901502 stress="-0.26881911645202583 0.005860708902906681 -0.07119676849793347 0.005860708902906681 -0.18624091462697367 0.04055648990746529 -0.07119676849793347 0.04055648990746529 -0.10776961132993515" pbc="T T T"
C        0.94604628       2.11437454       5.38836680       0.53610258      -0.22299280      -0.78788978      -5.77900883       0.10889749       2.45653750      -1.84566641
C        2.03868354       1.84837457       2.04334261      -0.92954508       0.05933034      -0.14523795      -5.68130650      -2.81855582       0.23512937       3.74785722
C        0.23705434       5.24564164       2.88271106      -0.66889672      -0.66503107      -0.63556666      -6.59744538      -0.69181203      -0.17072845       0.16122995
C        3.30124846       3.46557452       0.82272199       0.19605767       0.79435043      -1.09369616      -7.36736588      -0.15613938       1.02492929       2.86357149
C        2.33134247       1.93498674       4.69395804      -0.49456443       0.71795251      -0.72331638      -6.58256321      -0.17416177       0.81029105       1.84415510
C        2.44854900       4.57147627       1.81599724      -0.37511522       0.97059238      -0.71146529      -7.16819544       0.43063496      -0.01906668      -0.30654372
C        3.17418611       2.04987369       1.29535268      -0.06980737      -0.27868669       0.59920086      -6.88946770       3.56227299       0.53316840      -1.58456296
C        3.29022983       0.23214286       2.81329602       0.38939520      -0.35280603       1.20479024      -6.29968615      -1.57614799       0.40992584      -1.75707180
C        4.73188278       3.86938874       1.02674975       0.48625168       0.74087692      -0.12777138      -6.44754169      -0.77895754      -1.32562498      -0.14916069
C        5.36201005       0.63137148       1.63401077       0.97993024      -0.49963668       0.66991752      -6.84160662       0.11732326       2.83047133       1.67001398
C        5.21746039       5.13953064       0.46817039      -0.66937368      -0.79364427       0.17974549      -7.52609315      -0.85602034       0.73349267      -0.01679061
C        0.16088044       3.10969721       2.06962389       0.69472139       0.36292850       0.51370127      -7.20425447      -0.42847612       0.18318418       0.52073018
C        2.83128822       3.33071747       4.74872421      -0.50423079       0.25353323       0.63745489      -7.49554232       0.30544856      -0.54910057      -1.00678016
C        0.76329793       1.94855436       1.40666237       0.10438835      -0.54054389      -0.11328880      -7.64245455       1.23746458      -2.00890044       0.41029187
C        1.10551958       5.08924923       5.10651550       0.39360325       0.23225003       0.11095600      -7.37358019      -1.65381661      -1.36492644      -0.09413840
C        4.72229807       2.50215807       3.34156959       0.03549385       0.57852199       0.44074055      -7.43142430       0.05018538       2.42036381      -2.96007962
C        0.88283674       0.60886076       3.93115961      -0.16250248      -1.16923484       0.35885022      -6.24731689       1.62403030      -0.52947089      -3.16302635