27
Lattice="5.407371 0.0 0.0 0.0 5.407371 0.0 0.0 0.0 5.407371" Properties=species:S:1:pos:R:3:momenta:R:3:forces:R:3 virial="50.03956533484775 -1.3859214744663537 15.835384845385583 -1.3859214744663537 57.7188616270723 13.073109340387933 15.835384845385583 13.073109340387933 43.34004142006139" config_type=Amorphous_Bulk pbc="T T T"
C        1.21052000       2.02569000       5.31804000      -0.07310228       0.06284957       0.68343804      -7.84498358       6.22283602      -1.38567352
C        1.66093000       2.17594000       2.38906000      -0.15138266       0.03822886       0.26212216       9.37111187      -3.54619050      -1.15158117
C        0.01590000       5.25937000       3.11729000      -0.63425550       0.54445151       0.25660794       3.90172958      -0.22900701      -3.42069483
C        3.82024000       3.16460000       0.53518000      -0.14731563      -1.12182537      -0.79779515      -1.59737253       1.97523117      -0.15352492
C        2.37851000       1.89385000       4.62271000       0.40960067       0.43619870       0.01935436       5.51047516      -1.91381562      -0.22830385
C        2.21330000       4.78296000       1.74481000      -0.32354559       0.73697006      -0.01908696      -0.04141799       0.58406001       5.40686321
C        3.24993000       2.07202000       1.45622000       0.69838977      -0.13877649       0.01215206       0.02490544       1.73750055      -2.28727889
C        3.13398000       0.16564000       2.71302000       0.04549917      -1.27185792      -0.07904910       0.87922025       1.60830069       0.78615725
C        4.96227000       3.96407000       0.70854000      -0.52247099      -0.09214899      -0.23606436      -0.77163261      -1.83442819       1.85936856
C        5.20304000       0.85066000       1.72184000      -0.39404023      -0.38472133       0.86566498       3.14921904      -5.09746933      -1.10216618
C        4.83817000       5.38629000       0.67172000      -0.49259813      -0.74893255       0.60287299      -0.12397489      -2.51551437      -1.08390021
C        0.52252000       3.08168000       1.88921000       0.62619169      -0.09391313      -0.24996762      -3.44169426       4.35201502       5.80639076
C        2.95919000       3.44128000       4.63625000      -1.13574948      -0.17630669      -0.85814725       0.80853271      -8.44156170       2.05735683
C        0.93954000       1.69916000       1.34142000       0.32481480       0.03714847      -0.91628898      -3.54765511      -0.00373742      -3.66033840
C        1.43544000       4.97141000       4.95090000      -0.43537255       0.36374083       1.20399395      -2.61688471       1.99445832      -0.02304447
C        5.02995000       2.44006000       3.02307000       0.33895063       0.29760606       0.80399073      -6.84610939       3.97292972       5.04087162
C        0.91560000       0.44766000       4.06461000      -0.27543577       0.05278711      -0.15165453      -1.01035559       2.40414190      -6.01200151
C        4.16581000       1.43873000       2.39392000      -0.77993715       0.23719042      -1.14336585      -4.19964361       2.43821049      -3.54217386
C        3.87665000       3.58049000       3.57388000      -0.35950824       0.40297310       0.03505619       1.18297243       1.27341080       0.01103181
C        1.23964000       3.70395000       5.04965000       0.90883082      -0.56127751      -0.43218618      -0.17677392      -7.32704401      -0.39443886
C        2.21111000       0.91577000       3.43120000       0.17380169      -0.11822818       0.03968593      -7.14584255       8.23628998       2.24188542
C        4.10384000       5.05781000       3.64362000       0.58249065       0.80332833       0.06942792       1.36196899      -3.67679286       0.20400453
C        2.06432000       0.02000000       0.58526000       0.29300646       0.83119773       0.22429775       4.89632607       2.08548212       3.13656259
C        4.26171000       0.64796000       4.91079000       0.51900139      -0.44554944       0.17669169       1.76299977      -1.38537002       0.63798177
C        0.95447000       4.36528000       2.58802000       0.55315011      -0.01643103      -0.14872110       3.15435314      -3.72653723      -4.67782879
C        5.24245000       1.72322000       4.32161000       0.23181522       0.21104309      -0.12043319       5.53177595      -2.38768339       3.70541167
C        3.09419000       1.02028000       0.30139000       0.01917111       0.11425481      -0.10259642      -2.17124987       3.20028496      -1.77093875
27
Lattice="5.407371 0.0 0.0 0.0 5.407371 0.0 0.0 0.0 5.407371" Properties=species:S:1:pos:R:3:momenta:R:3:forces:R:3 virial="50.03956533484775 -1.3859214744663537 15.835384845385583 -1.3859214744663537 57.7188616270723 13.073109340387933 15.835384845385583 13.073109340387933 43.34004142006139" config_type=Amorphous_Bulk pbc="T T T"
C        0.91016018       2.38082049       5.12633175       0.86363206       2.90236864       1.26337772       0.00126952       1.73497200       0.90427506
C        2.04243989       2.00056620       1.93553159      -0.87896044      -2.26706403      -0.18688437      -1.68745041      -1.05849457       3.88691497
C        0.28546858       5.29607294       2.89104718      -1.00911019      -0.69783306      -0.95863996      -2.60619831      -0.95266348       0.31856367
C        3.53210577       3.33190966       0.78757943       0.54247188       0.29035381      -1.34439042       1.57770205      -0.46574044      -2.07813025
C        2.27578251       1.94665219       4.72330227       0.54571018      -0.40311608       0.85687896       3.41276264      -1.17066860      -1.95918965
C        2.30380514       4.94824301       2.02714236      -1.65354161      -0.68596700       1.98274980       0.07856897      -2.45234370      -2.75767946
C        3.28359332       1.97847011       1.29275413       2.27491549      -1.62577443      -2.35002378      -1.56978464       0.02688932      -1.84495902
C        3.23796813       0.28632190       2.85464451       1.29641194      -1.09630434      -0.43900287       0.11380959       0.44098455       1.29752469
C        4.73377380       3.83127320       1.13564342       1.85869294       1.39872915       0.47748953      -1.54288435       0.48071778      -0.16332850
C        5.32708647       0.70051260       1.69125824       1.10271853       1.96348907      -0.45278973       0.67132890       0.23049539      -1.04352236
C        5.19441643       5.13350215       0.56152258      -1.61449178       2.58201300       3.17311385       0.27649692       0.66714829       0.11466381
C        0.09164734       3.10031666       2.21030219      -1.45611177       0.50273492      -0.16035806       2.49390531       1.21689808      -4.81171513
C        2.89795785       3.39919682       4.78245182       0.49621118      -2.49353470       0.96993007       0.67929316      -4.52629280      -1.32784939
C        0.76435705       2.04758332       1.29025910       1.80641886       2.01306575      -0.41597439       0.54809868      -0.08921477       0.83197993
C        1.11202697       5.01771850       5.24238094       0.58059091      -0.30473032      -1.48637167       0.40378144       0.39564300      -2.88399410
C        4.61259862       2.31293435       3.13096978      -0.02415531      -0.61077826       0.92108541       1.50222683       5.25934839       2.26910901
C        0.90427756       0.67104023       3.82852980      -1.86570203      -0.50040526      -0.30762408       3.17971110      -2.55068541       1.62987816
C        4.10685272       1.34173502       2.19427797       0.13782446      -1.72452510      -2.53044260       0.50758106      -2.59460020       0.59498751
C        3.91605644       3.54713283       3.73958930       0.11394232       1.02705757      -1.17705317      -1.79847670      -0.60531646       1.93172026
C        1.47299547       3.78114421       4.51218216       0.13250164       0.82191741       1.53039587      -2.36128950       1.07481408      -1.59941518
C        2.21233744       1.26795363       3.36400037      -0.90985413      -1.21209924       0.88199927      -2.96864390       1.65105343       0.10103142
C        4.24716557       4.93849258       3.74644793       0.71706759       0.21487749      -0.08205055       1.25255609       1.00634193      -3.31373692
C        2.33800174      -0.20397289       0.62956375      -1.21060804      -1.00499493       0.81869439      -3.03552413       2.43805313       3.15556455
C        4.35812363       0.46939272       4.95193480      -2.12479692       0.66278388       0.34982117      -0.12620078       0.70762640      -0.72126532
C        1.14323288       4.16188267       2.69319951      -1.89680583      -0.48277042      -0.72952383       0.18015158      -1.78979135       2.88701224
C        5.38602129       1.64215399       4.22013942       1.75492450      -0.00320702      -1.03627180      -2.68588996      -0.58231318       4.30942822
C        3.01296719       0.96678089       0.14024370       0.42010355       0.73371346       0.43186534       3.50309825       1.50713849       0.27213380
27
Lattice="5.407371 0.0 0.0 0.0 5.407371 0.0 0.0 0.0 5.407371" Properties=species:S:1:pos:R:3:momenta:R:3:forces:R:3 virial="50.03956533484775 -1.3859214744663537 15.835384845385583 -1.3859214744663537 57.7188616270723 13.073109340387933 15.835384845385583 13.073109340387933 43.34004142006139" config_type=Amorphous_Bulk pbc="T T T"
C        0.92767216       2.42102771       5.14475262      -1.21727922      -1.78908301      -0.75823923       1.81549311       0.33016503      -0.24750486
C        1.92520617       1.63524042       1.96137289      -0.55430245      -1.52344382      -1.35312276       1.20765972      -0.37518579      -1.65445614
C        0.27802712       5.29368235       2.92869004       0.77723461      -0.49577091       0.31574241      -1.60987139      -1.15124369       0.73995411
C        3.51777447       3.30268847       0.68240440      -0.63723040       0.70863892       0.59027254      -0.56432372      -0.75725895       1.70794940
C        2.39828602       1.95340708       4.55901935       0.00708754       0.81731413       0.98025956      -1.89256907      -0.42104000       2.32491112
C        2.45534949       4.68433977       1.99804533      -0.06198336       1.45416039       1.03212368      -0.48262203       0.47648281      -2.06559181
C        3.17589563       1.91360937       1.25766822       0.55446395      -0.21610481       0.80935502       2.19291115       3.54599714       1.77735400
C        3.25494064       0.25797445       2.83453260       0.41087071       0.66297190       0.36760717       0.28962046      -0.52657646       2.11873484
C        4.71503095       3.83467727       1.06174187       0.02437205       0.35655290      -0.18534803       0.41610202       1.03432989       0.16684498
C        5.34903715       0.80196040       1.69770447      -0.34956620      -0.38549862      -0.04446157      -1.38965869      -2.73659658       0.17844298
C        5.16856466       5.18742347       0.59955531      -1.03067626      -0.89342301       1.04102335       0.05698963      -0.00036845      -1.31383264
C        0.25338323       3.09744288       2.03220272       1.14745715       0.99587425      -0.03010115      -2.10955620       3.31915808       1.57291424
C        2.89763263       3.35239879       4.71196820       0.82934740       1.51738473      -0.79111563      -0.08302951      -1.36276817      -1.12177503
C        0.76996815       1.98903504       1.26844957      -1.67119375      -0.70810227      -1.07117173      -0.13848627       1.10975122       0.34547114
C        1.10432299       5.07747828       5.19887064       0.44348089       0.26659720      -0.82746216      -0.55802691      -0.45356768       1.09190869
C        4.69662249       2.48783736       3.17246290      -0.48646346       1.39990831       0.21367462       0.36732489       0.35277987      -0.03350031
C        0.86725545       0.57990264       4.02012772      -1.09486118      -0.46212368       0.65813220       1.09579587       1.37379813      -3.57302833
C        4.12655148       1.41774271       2.24941875      -0.03947904      -3.01029914      -0.62059649      -1.99948764      -1.58113694      -0.95496440
C        3.95861754       3.61458085       3.81062128      -0.77922617       0.56247014       0.60195802       0.38222545      -0.88059568      -0.92634273
C        1.44113594       3.80350909       4.46615100      -0.16505075      -1.48437399      -0.46841429       0.07926056       0.88203931       0.44983578
C        2.03962071       1.19246423       3.37370413       0.24869661       1.08285502       1.24563689       3.06751728      -0.39229050      -0.51972932
C        4.31219955       4.96071404       3.66973196       0.17858145      -0.50897032      -1.03835210      -0.30295321       2.24650955      -0.34227237
C        2.14137688       0.04676793       0.78591308       1.53647691       0.16091674       0.23873131      -0.41731447       0.27571478       0.77695549
C        4.39808400       0.52687392       4.96215765       0.06218653      -1.15515732      -0.24014583      -2.59241009       0.22572905      -0.20188063
C        1.17897255       4.11991176       2.77846141      -0.10899999       0.43620682       1.65172292      -0.02758801      -0.89473575      -0.25514758
C        5.32913879       1.71712304       4.34520697       0.19584812       0.30452917      -1.89574598       0.26037031      -2.76611567       1.01652277
C        3.02255316       1.02601665       0.13229490       1.78020829       1.90597026      -0.42196279       2.93662643      -0.87297517      -1.05777359
27
Lattice="5.407371 0.0 0.0 0.0 5.407371 0.0 0.0 0.0 5.407371" Properties=species:S:1:pos:R:3:momenta:R:3:forces:R:3 virial="50.03956533484775 -1.3859214744663537 15.835384845385583 -1.3859214744663537 57.7188616270723 13.073109340387933 15.835384845385583 13.073109340387933 43.34004142006139" config_type=Amorphous_Bulk pbc="T T T"
C        0.87993241       2.39814902       5.19760397       0.68764053       0.12795852       0.30789835       2.49134922       0.61476481      -1.28734267
C        1.98519918       1.56183627       1.81604872      -0.14410655       0.74130143       0.17296808      -0.77218938      -1.72419310       0.02750954
C        0.20451273       5.26277843       2.93286629      -0.18011597      -0.27423129       0.17795931       1.85567605      -0.85587198      -0.17638117
C        3.34955099       3.53830505       0.95809881       0.21959083      -0.90617304      -0.65638544       0.61029100      -1.45499587      -0.44397691
C        2.42118942       1.95457941       4.57552011      -1.61306219      -0.02785191      -0.03484267      -1.42354739       0.03905052       1.60346198
C        2.55249620       4.58462495       1.72230853       0.52388783      -0.50185252      -0.36793364      -1.27073896       0.68953431       3.81571913
C        3.30324518       2.01336617       1.27507093      -0.88912197       0.01330170      -0.37488893      -1.83062494       1.28801847       0.92799282
C        3.20937559       0.15634913       2.86536641       0.20527611       0.60674081       1.48175009       2.69292736      -0.60284990      -0.69660616
C        4.74997341       3.93469729       1.10723218      -0.46750716      -0.00094578       0.13485459      -1.49117625      -1.20355392      -0.67031765
C        5.28853344       0.70306460       1.69539929      -0.53981058       1.09012737      -0.58110652       1.01685393       0.31931847      -0.43858868
C        5.15960123       5.18218498       0.48037169       0.01948131      -0.11461814       0.80505095       1.56137812       0.17058010       1.70308363
C        0.15629941       3.14967028       2.12063986      -0.41484925      -0.54175779      -0.54413075       0.65439135       0.63323456      -0.14400220
C        2.87202482       3.41724360       4.73545091      -1.29276264      -0.30279235       0.24456511      -1.09569430      -2.47402811      -0.37674028
C        0.74063939       2.07155522       1.33452525       0.43861484       0.06946840       0.76238736      -0.23628187      -0.81376171      -0.65012759
C        1.08621141       5.06785111       5.11811325      -1.14232096      -0.69460668       0.99572902       0.29486144       2.53098965       2.90350270
C        4.67018136       2.38776063       3.17411059       1.78648144       0.47535598       1.12620193       0.34601897       2.23490453       1.45247746
C        0.92224142       0.57298105       3.94028002      -0.21713251       0.96337330      -0.45982493      -0.27008402       0.05211902      -1.71342087
C        4.10624894       1.29894839       2.26102001      -0.29533064      -0.38546090      -0.45269332      -1.38950753       1.24574971      -0.85040522
C        3.96707652       3.57466017       3.88414378       0.64681063      -0.28692787       0.02737484       1.00823712      -0.44064468      -0.49201649
C        1.41289900       3.81716841       4.46287345       0.06664833      -0.40877617      -1.44700721       0.63016784      -0.16213226       0.00316441
C        2.16601632       1.05429516       3.36080071       0.50385360       0.71124244      -0.78822809      -1.24953413       2.82672477      -1.02437544
C        4.30379322       4.95610465       3.69919919       1.18828938      -0.07433513       0.73092253      -1.00913429       0.06897277      -1.23255956
C        2.13838315       0.27334502       0.85656204      -0.37929438       0.60220265      -1.42477575      -0.48260722      -1.10495508      -2.06550360
C        4.38972873       0.53374738       4.88910594      -0.56036948      -0.75562504      -0.88812661      -0.90516675      -0.36226675       0.94102257
C        1.12776625       4.10444161       2.80470071       0.68789913       0.10101789       0.39139874      -0.02859437      -1.74976325      -0.93935734
C        5.37286503       1.61780444       4.33698482       2.20927575       0.90037816       0.84696109       0.00901693       0.19927219       0.21930923
C        3.16723526       1.10831756       0.09883252      -1.04796543      -1.12651409      -0.18607824       0.28371239       0.03578196      -0.39552420
27
Lattice="5.407371 0.0 0.0 0.0 5.407371 0.0 0.0 0.0 5.407371" Properties=species:S:1:pos:R:3:momenta:R:3:forces:R:3 virial="50.03956533484775 -1.3859214744663537 15.835384845385583 -1.3859214744663537 57.7188616270723 13.073109340387933 15.835384845385583 13.073109340387933 43.34004142006139" config_type=Amorphous_Bulk pbc="T T T"
C        1.04862155       2.41421018       5.09751840      -1.31244487      -0.75856349      -0.27614540      -2.30192280       0.40214825       0.48963550
C        1.91652054       1.49895204       1.79534246       0.18509399      -0.16697612      -0.41854423      -0.50945795      -0.99986851       0.56702721
C        0.21643746       5.22395565       2.93097311       1.38104329      -0.63833590      -0.62248662       0.72437227      -0.30106559      -0.59289837
C        3.33773642       3.41890416       0.98950721      -0.94176429       0.82025414      -0.08198998      -0.06485045       2.44241667      -0.64746940
C        2.43373372       1.97750545       4.55766435      -0.95437298       0.55992412      -0.31748923      -1.11273599      -2.39522171       1.35952902
C        2.47983419       4.55657401       1.86671939      -1.49966435      -0.80736998      -1.28362515       0.01764806       0.06161032      -0.15930209
C        3.18864601       1.99884591       1.34183244       1.57198981       0.13604022       0.20124195       0.54462564       0.91491795      -1.68157625
C        3.23599009       0.26381663       2.85946104       0.92397841      -0.06911863      -0.66368853       1.47304249      -3.62043786       0.03942090
C        4.69972221       3.94118078       1.06998411      -0.31341150       0.12634568      -0.39177462       0.53725672      -1.88294172       0.59966338
C        5.25003912       0.71475783       1.69519460      -0.87778178      -0.37022724       0.05111719       1.06971300       0.15880311      -0.72986728
C        5.18068434       5.21927992       0.46616443      -0.07577085      -0.21749289       0.00737454      -1.06344175      -0.48052618       2.55265903
C        0.21324019       3.13564105       2.08031259       0.13185330      -0.43798493      -0.21175331      -1.21201074       0.74187481      -0.25041109
C        2.90888844       3.32422941       4.75665220       0.35987278      -0.76609132       0.41712521       0.90209687       2.15599823      -0.96138179
C        0.71569450       2.02512528       1.30066673      -0.65518556       0.34748262       0.35198716       0.20977199       0.07714313      -1.04913914
C        1.08828561       5.15892513       5.17548133       0.19164675       1.39075976       0.34949025       0.65035444      -1.22820187       0.33610106
C        4.68210581       2.38382038       3.19310390       0.36692750       0.29379648       0.96775321       1.27419889       3.66658211      -0.23010606
C        0.91396054       0.58664293       3.88427574      -0.13929496       0.08624751      -0.19377445       1.01125503       0.14629218       0.19306368
C        4.06346127       1.35385605       2.25412464      -0.16273498      -0.34057840       0.62813104       0.16657972      -0.49484167      -0.01863229
C        4.02604886       3.57908700       3.86529125       0.72618690      -0.48285659      -0.29322457      -1.38925207      -0.92327422       1.42533672
C        1.46524093       3.84453313       4.53167799      -0.50836036       0.47809838      -0.26463851       0.58263749      -0.37177035      -0.95553100
C        2.15158443       1.11292423       3.28071104      -0.21761359       0.40558468      -0.35508529      -1.95726717       1.37480474       1.81168103
C        4.28419577       4.95672111       3.66681361       0.48595657       0.47262676       1.19986784       0.08000307       1.09642649      -0.03313285
C        2.05381083       0.18797564       0.87199425       0.26516862       0.77128556       0.74706230       2.10400176       1.02189326      -1.14126801
C        4.39777613       0.61454452       4.95370935       0.37686095       0.12509053      -0.43833976      -0.82293105      -1.51040685      -1.36972725
C        1.20739972       4.04808146       2.78683704      -0.17984865      -0.34355237       0.19957377      -1.27804279       0.45462525       0.18651491
C        5.41665214       1.66334585       4.29787690      -0.15477969      -0.87141188      -0.03461191      -0.16039148      -0.30731380       0.88462549
C        3.12690918       1.09239428       0.13333991       1.02644950       0.25702328       0.72644709       0.52474564      -0.19966608      -0.62481534
27
Lattice="5.407371 0.0 0.0 0.0 5.407371 0.0 0.0 0.0 5.407371" Properties=species:S:1:pos:R:3:momenta:R:3:forces:R:3 virial="50.03956533484775 -1.3859214744663537 15.835384845385583 -1.3859214744663537 57.7188616270723 13.073109340387933 15.835384845385583 13.073109340387933 43.34004142006139" config_type=Amorphous_Bulk pbc="T T T"
C        0.93177178       2.45829609       5.18910299       0.50080343       1.31482537      -1.37672482       0.95744282      -2.02456355      -1.18495023
C        1.93326145       1.49080732       1.79732973      -0.61664204      -0.92671883       0.43791478       0.23247749       0.07967865      -0.26233858
C        0.26131148       5.19667646       2.89835097      -0.33049753      -0.11892368       0.42529199      -1.06637096       1.58235931       1.36473429
C        3.30475622       3.50792961       0.93189479       0.36391892       0.00202880      -0.21293502       0.74643505      -1.10934901       1.12525594
C        2.39198434       1.93740904       4.63075519       0.22070113      -0.04100377       0.31770157       0.01367730      -0.31575158      -0.92407238
C        2.46512534       4.55282256       1.83681227      -0.17211022      -0.59618635      -0.58072590       1.27165747       0.17259224      -0.59613359
C        3.22290939       2.03496651       1.33379586      -0.17717858      -0.12850172       0.38971774      -0.38423008       0.87124437      -0.96151692
C        3.24077605       0.18614229       2.79520144       0.19619970       1.11540935       0.31921206       0.10947293       0.10382582       2.03709388
C        4.76897128       3.82560149       1.03310837       0.01506370       0.88094414      -0.03409428      -2.77276611       1.58463144      -1.25388217
C        5.26272722       0.73307467       1.70028281      -0.48641305      -1.36320636       0.32389991       0.59611571      -0.43629819      -0.10158700
C        5.16208905       5.14756173       0.51430235      -0.56868910      -0.06455850      -0.04909701       0.69674373       1.61214209       0.06313960
C        0.15997300       3.14616072       2.04005844       0.71154283      -0.51984031      -1.03744783       1.89659119      -0.49455470       2.29804373
C        2.87895107       3.33222967       4.70166373       0.51076653      -0.51287615      -0.12928664      -0.57815671      -0.18198042       1.38017035
C        0.73756502       2.02832382       1.30895192      -0.60683088      -0.73953019       0.93333289      -1.16815042      -0.10295886      -0.59274405
C        1.11974246       5.13263171       5.15559253      -0.10391962       0.38093466       1.01492344      -0.33593440      -0.57218206       0.75556183
C        4.73923413       2.50889682       3.21416420      -0.30447870      -0.15911483      -1.02653548      -1.13733578      -0.05944173       0.55776525
C        0.90083925       0.59400229       3.90299827      -0.78014575      -0.02345786       0.39179387       0.91961157      -0.68063211      -0.90679181
C        4.07743422       1.43523253       2.32801332       0.48658376       0.17768805      -0.21345253       0.46475565      -2.00801468      -2.36782098
C        4.02900096       3.60631700       3.97539637      -0.44575003      -0.43618016       0.14994080       0.74987173       0.00752634      -1.58317351
C        1.45550816       3.78456383       4.47594484       0.07743949      -0.27292392       0.54004427       0.13493502       2.19346714       0.04127067
C        2.13274238       1.10545436       3.28035718      -1.12926698       0.23027341      -0.06341579      -0.73267466       0.58624601       1.79298449
C        4.24270463       4.99878524       3.67456376       0.24185893       0.75289504      -1.35509400       1.37806487      -0.87326407       0.12833717
C        2.11719704       0.21004468       0.83291794       0.41378281       0.58241355       1.14209372       0.24064465       0.18987936      -0.34532654
C        4.37535761       0.56234061       4.92157537       0.74383766       0.19795630      -0.64627158       0.99605966      -1.08953404      -0.65661579
C        1.19809833       4.01479555       2.77820830       0.51328164       0.33157701      -0.33530889      -1.26032376       1.12430096      -0.82759380
C        5.39797440       1.67146888       4.32977713       0.07997750       0.91249190       0.51057526       0.03055227      -0.46595848       0.22484690
C        3.19521376       1.09329452       0.12210994       0.64616443      -0.97641497       0.16394746      -1.99916637       0.30658925       0.79534328
27
Lattice="5.407371 0.0 0.0 0.0 5.407371 0.0 0.0 0.0 5.407371" Properties=species:S:1:pos:R:3:momenta:R:3:forces:R:3 virial="50.03956533484775 -1.3859214744663537 15.835384845385583 -1.3859214744663537 57.7188616270723 13.073109340387933 15.835384845385583 13.073109340387933 43.34004142006139" config_type=Amorphous_Bulk pbc="T T T"
C        0.95823184       2.40638208       5.21932493      -0.16018232      -0.13899976       1.51008371      -0.42237937      -0.32747489      -2.18447757
C        1.96492523       1.51725236       1.81756590       0.48399446       0.77293645      -0.30852291      -0.64620048      -0.51716191      -0.27119127
C        0.26723859       5.22526930       2.90597015      -0.16020514      -0.06005882      -0.08805875      -0.81286234       0.87462497       0.12154710
C        3.28054989       3.44635442       0.95353366       0.44369678      -0.44811067       0.34263812       1.28262770       2.40649152       0.05012703
C        2.35028585       1.96423734       4.60153070       0.26510962       0.36989309      -0.24067581       1.56377256      -0.97421396       0.22931288
C        2.48498455       4.59238217       1.84637160      -0.48658751       0.50078883      -0.43385630      -0.22185934      -1.14767992      -0.44426554
C        3.21054894       2.02761978       1.29697117      -0.36950240       0.22063648      -0.33396288       1.34442973      -0.30541068      -0.72089183
C        3.22470381       0.16397842       2.83123542      -0.13414750      -1.36107569       0.47529933       1.94313812       0.95769519       0.38395855
C        4.68159870       3.92670137       1.07961484      -0.03253596       1.14971281       0.99584959      -0.34250838      -2.21464562       0.51292729
C        5.33663878       0.74718225       1.66991932      -0.26005621       0.11463853      -0.40590222      -1.21711409      -0.55389953       0.01410806
C        5.14491162       5.17139867       0.53160187      -0.13544687       0.24794923      -0.35035310       1.07787764       0.69543457      -0.59138072
C        0.17448874       3.14519488       2.08753163       0.97293064       0.40846536      -0.40995297      -0.42358679       0.16679186      -0.38110888
C        2.86005194       3.32818665       4.72662407      -0.23372076      -1.16580536       1.16173952       0.63154781       0.93589723       0.03049922
C        0.74872246       2.02341556       1.30438620       0.89119152      -0.35058883       1.62664113      -0.32508218       0.78953457       0.47461122
C        1.11791564       5.12096694       5.18091462      -0.33603924      -0.47432197      -0.84017875      -0.17854625       0.16463912       0.11614834