27
Lattice="5.407371 0.0 0.0 0.0 5.407371 0.0 0.0 0.0 5.407371" Properties=species:S:1:pos:R:3:energies:R:1:forces:R:3 virial="50.03956533484775 -1.3859214744663537 15.835384845385583 -1.3859214744663537 57.7188616270723 13.073109340387933 15.835384845385583 13.073109340387933 43.34004142006139" config_type=Amorphous_Bulk energy=-180.55123840914814 free_energy=-180.55123840914814 stress="-0.3348930397049332 0.03518041751826738 -0.0461581499688323 0.03518041751826738 -0.3125554217699513 -0.08363528022492271 -0.0461581499688323 -0.08363528022492271 -0.24714862039881952" pbc="T T T"
C        0.92365468       2.28559185       5.28554028      -6.51388597       0.00143730      -0.00159798       0.00305249
C        2.03073587       1.93154968       2.07264545      -5.85749044      -0.01160295       0.00236793       0.01338244
C        0.20579201       5.28590279       2.92506353      -6.70462562      -0.00181146       0.00495106      -0.00178501
C        3.48514530       3.24457465       0.69302767      -6.32863991      -0.01072330       0.00836640      -0.00549628
C        2.42266771       1.83604608       4.65198909      -5.88405582       0.01095482      -0.02389632       0.00315466
C        2.34104967       4.79258710       1.90234376      -6.61749068      -0.00200396      -0.00406020      -0.00170117
C        3.23769492       1.97339514       1.28778570      -7.13664339       0.00217184       0.00276722      -0.00530285
C        3.21969912       0.25420097       2.85092303      -6.64369402      -0.00363932      -0.00236374      -0.00106275
C        4.69200320       3.88491065       1.05083791      -6.94941589       0.00664540      -0.01000531       0.00712413
C        5.32383214       0.76945643       1.74371927      -7.08881552      -0.00125894      -0.00679645      -0.00080565
C        4.93552622       5.26781835       0.71183897      -6.47520903      -0.01309935       0.02039437       0.00376448
C        0.17331270       3.16331412       2.02276573      -7.27869680      -0.00649145       0.00156702      -0.00547740
C        2.94910805       3.25969181       4.72654535      -6.94091911       0.00396806       0.00027041       0.00274099
C        0.78585235       2.00363260       1.36587523      -7.67645760       0.00590295       0.00198084      -0.00305140
C        1.27948500       5.01555273       5.00194870      -6.51035048       0.01698990      -0.00414470      -0.01642275
C        4.72879707       2.52730823       3.22400741      -7.46819079       0.00621496       0.00032175      -0.00151428
C        0.90779318       0.57561922       3.92975509      -6.71237257       0.00231158      -0.00188285       0.00212530
C        4.12137902       1.43034124       2.29253936      -6.22940624      -0.00249385       0.00041787       0.00618469
C        3.90785539       3.59350516       3.78114225      -6.66175701      -0.00748596      -0.00351330       0.00950904
C        1.46006294       3.69442360       4.62706114      -4.97475139      -0.01379053       0.01824395      -0.00701716
C        2.14162088       1.19885818       3.36826565      -6.81947771       0.00167712       0.00440611       0.00082327
C        4.26124239       4.97388316       3.64456943      -7.38396501       0.00305121       0.00479941      -0.00344818
C        2.23584431      -0.01151191       0.57083970      -6.62332187       0.00652642      -0.00847057      -0.00106791
C        4.38847603       0.47906650       4.92964135      -7.19067528       0.00375205      -0.00373105      -0.00197422
C        1.08182080       4.21610372       2.51024815      -5.98649364      -0.00260302      -0.00231974      -0.00474770
C        5.32593606       1.64616243       4.37539092      -6.73210383      -0.00022220      -0.00021777      -0.00161243
C        3.13683301       1.00384551       0.15691986      -7.16233279       0.00562271       0.00214564       0.01062564
