27
Lattice="5.407371 0.0 0.0 0.0 5.407371 0.0 0.0 0.0 5.407371" Properties=species:S:1:pos:R:3:forces:R:3 virial="50.03956533484775 -1.3859214744663537 15.835384845385583 -1.3859214744663537 57.7188616270723 13.073109340387933 15.835384845385583 13.073109340387933 43.34004142006139" config_type=Amorphous_Bulk pbc="T T T"
C        0.97535030       2.38118695       5.18632159       0.00942588      -0.00438201       0.00903312
C        2.01509309       1.95039014       2.08277135       0.00536174      -0.03851345      -0.00088477
C        0.21348170       5.26261964       2.93003192      -0.00751364      -0.01519687      -0.01323467
C        3.58675476       3.27024619       0.64547464      -0.00850029      -0.02095519       0.01012615
C        2.35920137       1.89244178       4.66929466       0.00808582       0.00790578       0.01718354
C        2.31187192       4.82591786       1.95672154      -0.01640062       0.01424149       0.00051934
C        3.24989528       1.99023333       1.31148930       0.01428568      -0.04328313      -0.01601361
C        3.21116485       0.27379097       2.85307452       0.00355771       0.00429868       0.00292155
C        4.70512740       3.87994090       1.04887627      -0.00004788      -0.01810336      -0.02274881
C        5.34781437       0.71772255       1.69098634      -0.01714292      -0.00694613       0.01752713
C        5.19106573       5.17947653       0.52817209      -0.01327318       0.00840650      -0.00286787
C        0.15607390       3.16280989       2.07319703      -0.00485927      -0.00368440       0.01529500
C        2.90022158       3.25909254       4.67666540      -0.00865740       0.02790993       0.01611406
C        0.80120156       2.04138145       1.34704191       0.00734568      -0.00682646      -0.00719225
C        1.11097497       5.04520729       5.14841603      -0.00118835       0.00952789       0.00187948
C        4.70544616       2.46258666       3.18884841      -0.02878240      -0.01585060      -0.02240722
C        0.90547252       0.59803080       3.90771231       0.00350365       0.02705365      -0.00274777
C        4.12008426       1.35390419       2.23755926      -0.00390220      -0.00424082       0.02431577
C        3.92428396       3.56537203       3.75556080      -0.00214860      -0.00174427      -0.01261605
C        1.44259283       3.77204661       4.45170939       0.02733174       0.02384901       0.00918442
C        2.13120253       1.22732963       3.38102261      -0.00433249      -0.00619750       0.01084942
C        4.24794824       4.97489713       3.66388886       0.01363435      -0.00304502      -0.01432255
C        2.17939819      -0.05527800       0.70255536       0.00199807       0.01003310      -0.01440072
C        4.35690479       0.51923358       4.95129791       0.00160256       0.02298395      -0.00871831
C        1.12510261       4.11435905       2.76066694      -0.00298619       0.00309673       0.02220279
C        5.36057923       1.63036672       4.37330520       0.00240499       0.01364163      -0.00977667
C        3.06891211       1.00052355       0.18056821       0.02119721       0.01602063      -0.00922102
