24
Lattice="2.53017074 0.0 0.0 0.0 6.83384267 0.0 0.0 0.0 8.5099505" Properties=species:S:1:pos:R:3:momenta:R:3:forces:R:3 virial="0.9179031634948371 0.0 0.0 0.0 0.881053318046228 0.0 0.0 0.0 1.4601498699259126" config_type=Crystalline_RSS pbc="T T T"
C        1.89763000       0.63344000       2.57905000       0.37329974       0.33201263       0.00837197      -0.00009691      -0.00007816       0.35545790
C        1.89763000       5.31723000       0.79557000       0.19900163      -0.21542957       0.89261262      -0.00012887      -0.51953894      -0.27765697
C        0.63254000       6.20041000       7.71438000       0.48947497      -0.01143338       0.83116984       0.00013068       0.51955926       0.27765089
C        0.63254000       6.20041000       0.79557000       0.24912975       1.08474001      -0.26696027       0.00013331       0.51956671      -0.27764118
C        0.63254000       4.05036000       2.57905000      -0.29832201       0.55120530       0.64475676       0.00009297      -0.00012218       0.35547712
C        1.89763000       1.90031000       3.45940000      -0.19761248      -0.06194929       0.16041316      -0.00013158      -0.51966572       0.27790964
C        1.89763000       0.63344000       5.93090000       0.20186219      -0.20560675       0.30987574      -0.00009641      -0.00008347      -0.35545918
C        1.89763000       1.90031000       5.05055000       0.32416026      -0.03221948       0.33807764      -0.00013239      -0.51966435      -0.27791661
C        0.63254000       2.78348000       3.45940000      -0.17582313      -0.48568913       0.44011402       0.00013352       0.51984131       0.27791297
C        0.63254000       2.78348000       5.05055000      -1.25618979       0.71550950       0.32181743       0.00013182       0.51984525      -0.27790231
C        0.63254000       0.63344000       6.83402000      -0.27683442      -0.37567247       0.25360951       0.00009634      -0.00008372       0.35569417
C        0.63254000       5.31723000       3.45940000      -0.20646283      -0.35088396      -0.53100583       0.00012825      -0.51945883       0.27793747
C        0.63254000       4.05036000       5.93090000       1.54386494      -0.38692857      -0.82758099       0.00009339      -0.00012720      -0.35548842
C        0.63254000       5.31723000       5.05055000      -0.75684266      -0.18042341      -0.50088363       0.00013166      -0.51945466      -0.27794236
C        1.89763000       6.20041000       3.45940000      -0.32875101      -0.37821198       0.26229154      -0.00013382       0.51948225       0.27792990
C        1.89763000       6.20041000       5.05055000      -0.35900046      -0.05982634      -1.26992134      -0.00013255       0.51948595      -0.27792025
C        1.89763000       4.05036000       6.83402000       0.11508347       1.10544805       0.44003684      -0.00009610      -0.00012383       0.35571745
C        0.63254000       1.90031000       7.71438000      -0.42476107      -0.06466422       0.00055714       0.00013111      -0.51973546       0.27764654
C        0.63254000       0.63344000       1.67593000       0.09463210       0.11313416      -0.25551174       0.00009831      -0.00008145      -0.35570860
C        0.63254000       1.90031000       0.79557000       0.30662054      -0.48054570       0.38766097       0.00013257      -0.51974028      -0.27763528
C        1.89763000       2.78348000       7.71438000      -0.08479797       0.16898261      -0.10770700      -0.00013146       0.51991498       0.27763546
C        1.89763000       2.78348000       0.79557000       0.26734567       0.68300671      -0.76257448      -0.00013060       0.51991707      -0.27763289
C        1.89763000       4.05036000       1.67593000      -0.17356708      -0.48129893       0.08429988      -0.00009069      -0.00012130      -0.35573083
C        1.89763000       5.31723000       7.71438000       0.37448967      -0.98325578      -0.85351978      -0.00013165      -0.51953292       0.27766508
24
Lattice="2.53017074 0.0 0.0 0.0 6.83384267 0.0 0.0 0.0 8.5099505" Properties=species:S:1:pos:R:3:momenta:R:3:forces:R:3 virial="0.9179031634948371 0.0 0.0 0.0 0.881053318046228 0.0 0.0 0.0 1.4601498699259126" config_type=Crystalline_RSS pbc="T T T"
C        1.87292199       0.62869278       2.55953533      -0.11733701      -0.05008875       0.10262874       0.17150685       1.89472890       0.92486417
C        1.94357123       5.32386419       0.85060855       0.11819722      -0.14306231      -0.58041339      -0.34764031      -1.01768589      -1.30658352
C        0.66894213       6.20904879       7.76442678      -0.16745036       0.13914259       0.12178102      -0.57805836       0.19531196      -0.22092876
C        0.68315007       6.18258266       0.81380899       0.17084251       0.12473417       0.54060794      -0.78111029       2.09941030       0.70074189
C        0.62205436       4.04391540       2.57681648       0.08315528       0.28858505      -0.02692331      -0.16099533      -0.08519065       0.54721659
C        1.89907449       1.90107150       3.46873651      -0.28598172       0.55730293       0.90371998      -0.82003653      -0.29583904       0.96575820
C        1.96566714       0.58241921       5.91087785       0.60244047      -0.09169143       0.05634497      -2.69580722       0.26277927       0.64890122
C        1.85927145       1.88008383       5.10924846      -0.83599155       0.33077695      -0.87914032       1.46605456      -0.26886278      -2.13416553
C        0.61354313       2.79933293       3.49182858      -0.07768847      -0.49916501      -0.09762205       0.59221077      -0.35250437       0.10620743
C        0.61367446       2.76688529       5.08317712      -0.01686644       0.22944974       0.39316945      -0.34462446       0.91449291      -0.09309483
C        0.63801694       0.60025839       6.83740628       1.29414477      -0.57983021      -0.49551798       1.43932843       0.39771193       0.01231703
C        0.61148516       5.32992174       3.43500591      -0.20760972       0.28535868       0.70338882       0.18858671      -0.84166902       0.25942582
C        0.64287587       4.08440592       5.95080735      -0.61180711      -0.73327446       0.28479109      -0.64453548      -1.01730442      -1.44609475
C        0.62367423       5.29682834       5.04253683      -0.77604472       0.37511051      -0.41983029      -1.06441045      -0.10657465      -1.06700826
C        1.87861892       6.22423285       3.42303404      -0.51448602      -0.19256289       0.50347722      -0.14169374      -0.91102618       1.35477209
C        1.85031883       6.15432291       5.03460637      -0.20027199      -0.15522633      -0.73168665       2.04192829       1.98096728      -0.37468135
C        1.89097330       4.08255708       6.80667645       0.27340660       0.73826516       0.16607124       0.70131671       0.14434904       2.29420877
C        0.64264767       1.91302016       7.64339548      -0.56424891       0.35498775       0.37361002      -0.33471701      -0.71889198       1.57059133
C        0.60489723       0.68948286       1.68452736      -0.18528539      -0.13947566       0.80249179       0.73895347      -1.95695043      -1.39816391
C        0.63044886       1.90694878       0.75181517       0.30025436       0.03053637      -1.03751885      -0.08342075      -0.72834814      -0.06061506
C        1.90052981       2.80669607       7.68804998      -0.15775036      -0.10346316      -0.70474024       0.04002228       0.00387152      -0.47668111
C        1.89741163       2.76294980       0.74918814       0.33432749       0.57523879      -0.22290912      -0.05049765       1.65758085       0.38138098
C        1.88925425       4.03641495       1.67872558       0.78675194      -1.01299561      -0.27936702       0.36346796      -0.20732874      -0.44193554
C        1.91901684       5.33498355       7.76456041       0.75529915      -0.32865286       0.52358685       0.30417168      -1.04302776      -0.74643391
24
Lattice="2.53017074 0.0 0.0 0.0 6.83384267 0.0 0.0 0.0 8.5099505" Properties=species:S:1:pos:R:3:momenta:R:3:forces:R:3 virial="0.9179031634948371 0.0 0.0 0.0 0.881053318046228 0.0 0.0 0.0 1.4601498699259126" config_type=Crystalline_RSS pbc="T T T"
C        1.88299765       0.62351600       2.57874141       0.64414316      -0.42155383      -0.33245428       0.65633368       2.33474517      -0.76311648
C        1.98925244       5.30330708       0.80724760      -0.43703107      -0.11553597      -0.04025382      -1.88859034      -0.47927505       0.32044411
C        0.66797513       6.20845623       7.70654455       0.39854568       0.48130583       0.27280631      -0.54233736      -0.79222429       2.08028603
C        0.69654648       6.19099319       0.84199878      -0.06847426      -0.99357354      -1.20286872       0.24800351       1.08038723      -1.55584860
C        0.59736605       4.02143005       2.58730267      -0.13230695       0.13272135       0.52505347       0.36401507       0.20010319      -0.42099589
C        1.88515010       1.89364184       3.48383135      -0.07680698       0.67921429      -0.13520147      -0.00750957       0.25317410       0.83852065
C        1.85155841       0.62323914       5.88551660      -0.47650708       0.92277976      -0.02618728       1.00496101      -0.79921967       2.13734794
C        1.85362158       1.89077342       5.11695274      -0.08024771       0.18734725      -0.06781549       0.53311467       0.88854742      -2.23867989
C        0.62439085       2.81304687       3.47783531      -0.24543016       0.16487144       0.42880085      -0.35290709      -1.46381271       1.37551033
C        0.60349330       2.80024470       5.11902474      -0.35337691      -0.11187864      -0.90965776       0.06377763      -0.00752693      -1.64376640
C        0.64657064       0.58329001       6.85138381      -0.18296939      -0.00356617       0.27802035      -0.54465663       1.85930407      -0.81994045
C        0.58251484       5.29581856       3.40145410      -0.69828754      -0.13376631      -0.03362363       0.77414048       0.94103277       0.95680946
C        0.63911521       4.09895966       5.93950702      -0.28989022      -0.65672455      -0.33940845       1.10223126      -0.97690737      -0.89044923
C        0.57845632       5.32846432       5.02089606       0.28695361      -0.01190564       0.20515057       0.87868696      -0.07539868      -0.70492280
C        1.87689116       6.22397448       3.34213970      -0.18973247       0.07382613       0.70724681      -0.68204671      -2.15885806       3.93076372
C        1.85783599       6.21190932       5.03275321      -0.53472308      -0.52178022      -0.22717200      -0.35095024       0.16240945      -2.01588893
C        1.98154520       4.06118100       6.82813906       1.37238929      -0.04636766      -0.71210948      -2.87637734       1.07608402       1.33534980
C        0.65979896       1.89116674       7.72599703       0.00083336       0.26179524      -0.01088263      -1.15061450      -0.27687344      -0.62584287
C        0.65519059       0.67481964       1.66095363       0.64337940       0.78632299       0.10696761      -0.69343495      -1.72179604       0.40767708
C        0.63282642       1.89674181       0.80163861       0.52085614      -0.35071729      -0.01224140       0.76350981       0.12227488      -1.17875016
C        1.88856442       2.81518877       7.67648417      -0.23506692      -0.12671354       0.80003137       1.55191898      -1.37835133       1.72694898
C        1.91607255       2.77284350       0.79791576      -0.17971712      -0.00557871       0.75923304      -0.84968650       0.68737942      -0.71547449
C        1.88139968       4.00168468       1.66863919       0.56201507      -0.21674966       0.09333617       0.63675940       0.96171510      -0.06217462
C        1.91290603       5.31622897       7.76650289      -0.24854779       0.02622746      -0.12677015       1.36165953      -0.43691266      -1.47380733
24
Lattice="2.53017074 0.0 0.0 0.0 6.83384267 0.0 0.0 0.0 8.5099505" Properties=species:S:1:pos:R:3:momenta:R:3:forces:R:3 virial="0.9179031634948371 0.0 0.0 0.0 0.881053318046228 0.0 0.0 0.0 1.4601498699259126" config_type=Crystalline_RSS pbc="T T T"
C        1.86508261       0.62993404       2.59408610       0.34263756      -1.43123595       0.78940818       0.85398084      -0.17030078      -0.99539864
C        1.97299775       5.33103674       0.82193215      -0.14860293       0.07319554      -0.20064467      -1.20917845      -1.14826727      -0.82446969
C        0.64880251       6.17627263       7.72725958       0.21461965       0.67786984      -0.50539534       0.74567515       0.98917741      -0.67863202
C        0.68669496       6.20902409       0.78690560      -0.96105999      -0.38960475      -0.66925667       0.03957625       0.21657282      -0.18893600
C        0.64823567       4.05977943       2.56569866       0.97570633       0.17147241       0.09862413      -0.37097749      -0.74055004       1.11391568
C        1.89357372       1.89675528       3.40663937      -0.14363644      -0.08728597      -0.03185007      -1.15969479      -0.14953056       2.20951533
C        1.92038077       0.68530274       5.91857051       1.24436530       1.02667788      -1.32786433      -0.45132333      -1.82809842       0.56264752
C        1.87185745       1.92413278       5.06387026      -0.41016607      -0.77307956      -0.08365199       0.06636876      -0.55528116      -1.83884096
C        0.59662846       2.77971705       3.44208260      -0.25438049       0.73061938      -0.62994596       1.27087307       0.68642426      -0.08116812
C        0.59115050       2.79817004       5.01793025       0.02094898       0.02839979      -0.28669115       0.42216003       0.26290113       0.44231367
C        0.68029409       0.63115624       6.83405161      -0.70899276      -0.25780549      -0.31574076      -0.88338524       0.64202380       0.21798177
C        0.58965276       5.29926780       3.45905958      -0.13559534      -0.94173025      -0.16428805       0.15363649       0.42092827       1.44249320
C        0.58245944       4.03248622       5.94005929       0.40204119      -0.15428241      -0.07832769       0.57859004       0.42945868      -0.16307315
C        0.58009507       5.31134833       5.13738861       0.01300426      -0.22775584       0.08310781      -0.26760128       0.21179107      -2.56126404
C        1.84413036       6.19428689       3.47122680      -0.72612050       0.80565951       0.22874335       0.29741290       0.12239462       1.03366554
C        1.83185280       6.20581077       5.10411304       0.30393665       0.14421039       1.13388188       1.13451350       0.34513170      -1.56716466
C        1.87028672       4.04145656       6.84763769      -0.78664074      -0.90584107       0.18817286       0.49944469      -0.61215246       0.03314953
C        0.65881507       1.89808917       7.67781341       0.63390096       0.16511447       0.10488641       0.79284561      -0.74333531       1.62852824
C        0.64735259       0.64148183       1.63887860       0.36774058       0.89404960      -0.19451608      -0.59202743      -0.33646557       1.30388284
C        0.64054991       1.90293866       0.81272555      -0.84606380      -0.07636512       0.88065687       0.92638904      -0.33945355      -2.14663315
C        1.94998138       2.77516734       7.71691290      -0.06640575       0.33749138       0.42180078      -1.45722067       0.60662937      -0.71696031
C        1.93642484       2.78219476       0.73654558       0.59052747       0.56440857       0.58513386      -0.81809235       0.72970802       2.39743042
C        1.93229708       4.04472591       1.69841014       0.26066193       0.32641482      -0.20820974      -0.13060540       0.63568676      -2.07703495
C        1.92244349       5.29038469       7.69960213      -0.18242603      -0.70059717       0.18196639      -0.44135985       0.32460737       1.45405197
24
Lattice="2.53017074 0.0 0.0 0.0 6.83384267 0.0 0.0 0.0 8.5099505" Properties=species:S:1:pos:R:3:momenta:R:3:forces:R:3 virial="0.9179031634948371 0.0 0.0 0.0 0.881053318046228 0.0 0.0 0.0 1.4601498699259126" config_type=Crystalline_RSS pbc="T T T"
C        1.93934988       0.61532447       2.58180052       0.14201064      -1.01481741       0.17150372      -1.29432440      -0.20667318      -0.23955208
C        1.91123460       5.33211513       0.72286566      -0.36840328       0.57694532      -0.52992765       0.64712346      -1.02231061       1.29183781
C        0.64282626       6.19992802       7.63244741      -0.56336338       0.26799500      -0.07965192       0.04394938       0.60702944       1.98524690
C        0.67177135       6.19516227       0.77478589      -0.78076495      -0.34262330       0.31583090      -0.98047209       0.75696057      -1.52294159
C        0.61392453       4.08942675       2.55371285       0.89862730       0.45867076       0.01767867       0.31784028      -0.72016525       1.90561044
C        1.85974864       1.91393494       3.42007526       0.23146552       0.13470632      -0.38880538       0.63302016      -1.08495355       0.62398595
C        1.86224722       0.64874925       5.96318868      -0.06503565       0.36823921      -0.12554891      -0.66712779       0.18682584      -2.06023383
C        1.87160756       1.90645279       4.98800756      -0.07021614      -0.37584792      -0.02375355       0.06708403      -1.16989970       1.47996759
C        0.59214731       2.78036998       3.41173450      -0.48047056       0.17046937      -0.01558260       0.31585604       1.35442638       0.93949157
C        0.61582128       2.77295834       5.05756262       0.11908713       0.34128863      -0.16660884       0.21788472      -0.44182727      -1.98621559
C        0.56687627       0.64942055       6.83371972       0.35797412      -0.76494029      -0.37715099       2.14763713       0.66494030       0.91707993
C        0.56573926       5.32077159       3.48438754      -1.15709908      -0.90691671       1.01841415       1.62489033      -0.82559115      -0.30884826
C        0.68115287       3.94553620       5.95591293       0.03371299       0.69577015      -0.19121630      -1.98623967       3.19818926      -0.80523854
C        0.58022225       5.30750111       5.06245767       0.85407305       0.24984067       0.15370605       1.21567059      -1.18254519       0.20783573
C        1.87497284       6.17880229       3.45217117       0.74537037       0.32536749      -0.18525194      -0.82650119       1.47769332       1.50958383
C        1.86100059       6.19006145       5.09793057       0.41400869      -0.09016066       0.58100252      -0.41157436       0.45995545      -1.26832318
C        1.91150700       4.02894088       6.83619442       0.49442099      -0.24546581      -0.57812138       1.25557625      -1.04618430       0.93184829
C        0.70118577       1.92796671       7.78358762      -0.30075516       0.51287699       0.32012565      -1.08989155      -1.21773970      -0.55257225
C        0.65664196       0.60417005       1.66699294       0.75655188       0.18319251      -0.75387174       0.60223979       0.80015558      -0.09816180
C        0.67005939       1.93377112       0.81783191      -0.25454574       0.21812105      -0.24690570      -0.65721798      -1.72291946       0.92534506
C        1.96984520       2.78509553       7.79261758       0.28071533      -0.42691416      -0.32798371      -0.77230728       1.44626570      -0.92294520
C        1.90795149       2.81376010       0.86807757      -0.67588901      -0.13246817      -0.29184611       0.93635905      -0.23872177      -1.34307241
C        1.90711156       4.07041224       1.70612816      -0.33568187      -0.11820116       1.32544987      -0.71816617       0.86796159      -2.11527872
C        1.92709489       5.33028826       7.65520926      -0.27579322      -0.08512792       0.37851513      -0.62130946      -0.94087267       0.50554961
24
Lattice="2.53017074 0.0 0.0 0.0 6.83384267 0.0 0.0 0.0 8.5099505" Properties=species:S:1:pos:R:3:momenta:R:3:forces:R:3 virial="0.9179031634948371 0.0 0.0 0.0 0.881053318046228 0.0 0.0 0.0 1.4601498699259126" config_type=Crystalline_RSS pbc="T T T"
C        1.90100409       0.60437581       2.57795733      -0.05111487       0.61459181       0.60931521      -1.60015929       0.13320330       0.68718857
C        1.88992694       5.29364005       0.79552898      -0.48869364       0.46649345       0.03714890       0.04038402       0.16653579      -1.68337882
C        0.64068693       6.20486965       7.67989953      -0.55234460      -0.46207067       0.20095861      -0.10351302       0.04939735       1.35857320
C        0.60688975       6.17646894       0.78904155      -0.21703653      -0.93475387       0.02614519       0.46390498       0.35485107      -0.80028611
C        0.63706156       4.10307579       2.56367978       0.19417312       0.61023751      -0.40489297       1.07270932      -1.73391402       0.42683211
C        1.82564816       1.90244826       3.38927864       0.46760375       0.12569242      -0.19250170       2.20016932      -0.21742387       2.22559071
C        1.90649831       0.65569898       5.95226327       0.02199438      -0.39087172      -0.32395453       1.14629960      -0.14881110      -0.84024817
C        1.91691169       1.90013463       5.05489426      -0.02563482      -0.09442559       0.47646486      -0.97516179       0.32878017      -1.45507777
C        0.60787925       2.80432943       3.42133864       0.02267436      -0.78279907       1.07527925      -0.81616020       0.29746026       0.61459243
C        0.62829020       2.81677492       5.02768359      -0.14154328       0.57798556       0.33524062      -0.16451380      -1.28825247      -0.31609529
C        0.69774460       0.65268511       6.86821059       0.46326156      -0.33556369      -0.46246005      -1.64514661      -0.26505366      -0.88106740
C        0.65441209       5.31719126       3.44184880       0.88113432      -0.04257123      -0.53201746      -2.01051402      -0.20381828       2.20067453
C        0.56342055       4.01647964       5.93956254       0.13931911      -0.12697509       0.29511243       2.06879520       1.93309975      -0.67533237
C        0.63454376       5.32318334       5.08596126       0.51387243       0.38079280      -0.23726531      -0.22672424      -1.27091169      -0.76024407
C        1.85330581       6.18139057       3.52220230      -0.41140226       0.34424913      -0.38521692       2.41312790       1.66088271      -1.70543456
C        1.91095148       6.20242914       5.08091944       0.53751000      -0.48651729      -1.62236721      -0.43574852       0.47357613      -0.22005314
C        1.88742725       4.07945995       6.84138548       0.75259181       1.11298154      -0.04020936      -0.83329308      -2.46524072      -0.01704770
C        0.68498564       1.89253019       7.70877323      -0.16626923       0.75813397      -0.69234731      -0.39243221       0.48426425       1.81794083
C        0.60208074       0.58778935       1.67766271       0.35076210      -0.06688811       0.42425242       1.03304291       0.48840010      -0.57776660
C        0.62759253       1.87402582       0.80892232      -0.96363268       0.01200181       0.21412645       0.23664987       0.35192120      -0.13637060
C        1.94169505       2.78217994       7.74410476      -0.64889554      -0.65491838       1.22130219      -0.48191065       0.97144413      -0.10212630
C        1.90193563       2.80216200       0.83872348      -0.31696674      -0.70789133      -0.81177594       0.44862044      -1.50113916      -1.77987194
C        1.95138798       4.05228804       1.66060660       0.42995863       0.06714204       0.67366573      -1.71646023       0.91096681       0.29918486
C        1.88976001       5.31530918       7.64895091      -0.79132134       0.01594402       0.11599687       0.27803460       0.48978215       2.31982327
24
Lattice="2.53017074 0.0 0.0 0.0 6.83384267 0.0 0.0 0.0 8.5099505" Properties=species:S:1:pos:R:3:momenta:R:3:forces:R:3 virial="0.9179031634948371 0.0 0.0 0.0 0.881053318046228 0.0 0.0 0.0 1.4601498699259126" config_type=Crystalline_RSS pbc="T T T"
C        1.92825979       0.61686301       2.56900562       0.75184779       0.98697214      -0.08126503      -0.08184911       1.20287061       0.94115895
C        1.84004933       5.31934142       0.85279439      -0.04092459       0.67364636       0.11828567       1.92317164      -0.47387096      -2.33731484
C        0.60179647       6.18208699       7.73041846      -0.41440620       0.07304520      -0.39628101       0.73151648       0.08290303       0.43308556
C        0.62748105       6.20709456       0.81540197       0.02043307       0.26745219       1.31781392      -1.15867126       0.13200161      -0.61768341
C        0.60492110       4.04485186       2.58031832       0.06308120      -0.45430191       1.06345584       0.57138902      -0.39027044      -0.60915041
C        1.88200021       1.89936683       3.48668189      -0.47439831       0.13719550       0.15709475      -0.39549345      -0.80416453      -0.68359494
C        1.87252261       0.62070264       5.94144804       1.43225221      -0.50340336      -0.26034219       0.44034195      -0.36391521       0.14970498
C        1.90715839       1.88834936       5.07894228      -0.32465159      -0.73729446      -0.13543946      -0.59330434       0.51384985      -0.81049365
C        0.58181234       2.79105041       3.44071621       1.45222451      -0.04977757      -0.21016248       1.31707370       0.02202179       1.70280004
C        0.63986775       2.80201571       5.06919191      -0.24073839       0.85521989       0.78889543       0.10686487       0.05604190      -0.49179959
C        0.60054202       0.58887571       6.86903895      -0.09244157       0.22211650       0.85605409       0.22399169       1.21666586      -0.75605065
C        0.65333900       5.31148038       3.42766045       0.42468552      -0.44139545       0.31751390       0.45868692      -0.03598869       1.47310162
C        0.67827235       4.08398795       5.93447216       0.91767393      -1.38057349      -0.02279459      -0.75827819      -0.38176939      -0.58993560
C        0.65963758       5.33882295       5.04232777      -0.19184036       0.10452837      -0.70162773       0.09186765      -1.25474370       0.07084113
C        1.95135994       6.20207278       3.45250927       0.28523575       0.49245186      -0.83109957      -1.13065827       0.38497588       0.05316865
C        1.91952151       6.20383859       5.07795514      -0.00172508      -0.22248448       0.59179425      -0.14542398       0.51632726      -1.78447795
C        1.92793095       4.07898978       6.84997585      -0.57466141       1.20938980      -0.51427611       0.01939197      -0.92927182      -1.15368199
C        0.62136149       1.88580172       7.68468887      -0.52400085      -0.07285420      -0.43860270       0.54000849      -0.09159143       0.94305104
C        0.66567546       0.65269356       1.66057329      -0.36698317      -0.38212404      -0.01434794      -0.43545324      -0.67551196       0.22034153
C        0.63225590       1.89534292       0.79896091      -0.01124094      -0.25928569      -0.89516077      -0.55407733       0.98548979      -1.50898600
C        1.91589671       2.78741760       7.64031215      -0.53793140      -0.27530941      -1.29217567      -0.83364016      -0.22262764       2.57092428
C        1.86030574       2.81975265       0.77960880      -0.95157453       0.64437934      -0.23146403       1.29064798      -1.59624159      -1.36000490
C        1.89400681       4.03110798       1.63082024       0.19286698      -0.69588305       0.26236854      -0.97838128       1.10841203       1.97086787
C        1.89606552       5.28901266       7.70557704      -0.79278255      -0.19171005       0.55176295      -0.64972204       0.99840742       2.17412901
24
Lattice="2.53017074 0.0 0.0 0.0 6.83384267 0.0 0.0 0.0 8.5099505" Properties=species:S:1:pos:R:3:momenta:R:3:forces:R:3 virial="0.9179031634948371 0.0 0.0 0.0 0.881053318046228 0.0 0.0 0.0 1.4601498699259126" config_type=Crystalline_RSS pbc="T T T"
C        1.88794554       0.65005320       2.54531542       0.61055169       0.68492696       0.06006078       0.07041328       0.99431163       2.20507574
C        1.90492618       5.32937598       0.83400753      -0.74201030       0.21491415       0.57180254      -1.76801848      -0.84134179      -1.05311322
C        0.59329959       6.21463471       7.75888684      -1.18396825      -0.19248672      -0.52267958       0.69253391      -0.58653867       0.01721889
C        0.58326553       6.20183903       0.83671498       0.90186320       0.13412458       0.01538984       1.76967978       1.47064722      -0.61109358
C        0.69147118       4.01615906       2.53176372       0.33808431       0.09536633       0.04163540      -1.54231453       0.13809806       1.95417738
C        1.89263944       1.92113051       3.55363904       0.96939544      -0.07814498       0.02424916       0.54195058      -1.94432819      -2.14065695
C        1.95215281       0.60970309       5.96222118      -0.45163564       0.65188291      -0.58094397      -1.37588811      -0.63687485      -1.83765233
C        1.91552813       1.91292452       5.09014232       0.14024615      -0.38996378       0.85096361       0.02574030      -1.40299988       0.69222504
C        0.64610566       2.76443421       3.51609246      -0.14281377      -0.58604093       0.21854511      -0.16575907       1.67758441      -0.59072942
C        0.64643021       2.78136522       5.09802860      -0.00657374       0.32572395      -0.58308918       0.03911640       1.08272982      -0.46154588
C        0.64534578       0.57641000       6.84564901       0.63783443       0.45081173      -0.12289426       0.19668578       1.89882076       0.68602157