24
Lattice="2.53017074 0.0 0.0 0.0 6.83384267 0.0 0.0 0.0 8.5099505" Properties=species:S:1:pos:R:3:momenta:R:3:energies:R:1:forces:R:3 virial="0.9179031634948371 0.0 0.0 0.0 0.881053318046228 0.0 0.0 0.0 1.4601498699259126" config_type=Crystalline_RSS energy=-161.8164525776723 free_energy=-161.8164525776723 stress="-0.2266515248071596 -8.403420730125007e-17 -2.2635476714141436e-18 -8.403420730125007e-17 0.030432978864066738 1.730199251337186e-16 -2.2635476714141436e-18 1.730199251337186e-16 -0.040952978551887446" pbc="T T T"
C        1.89763000       0.63344000       2.57905000       0.09050419      -0.11593215      -0.20579509      -7.90281892      -0.00011625      -0.00007174       1.74107276
C        1.89763000       5.31723000       0.79557000       0.28206099       0.30791942       0.36789506      -6.16211849      -0.00023126      -1.88530393       2.85030094
C        0.63254000       6.20041000       7.71438000       0.00023964       0.38795199       0.87344934      -6.16211565       0.00023126       1.88533767      -2.85032644
C        0.63254000       6.20041000       0.79557000      -0.66851747      -1.07159991       0.45445004      -6.16211565       0.00023126       1.88533767       2.85032644
C        0.63254000       4.05036000       2.57905000       0.20442065      -0.00981643      -0.36990240      -7.90281482       0.00011625      -0.00017815       1.74110693
C        1.89763000       1.90031000       3.45940000      -0.51897110      -0.31569846      -0.20267802      -6.16213229      -0.00023126      -1.88551001      -2.84990836
C        1.89763000       0.63344000       5.93090000       0.86418736       0.56836085      -0.10369088      -7.90281892      -0.00011625      -0.00007174      -1.74107276
C        1.89763000       1.90031000       5.05055000       0.03548586      -0.70062642       0.09562741      -6.16213229      -0.00023126      -1.88551001       2.84990836
C        0.63254000       2.78348000       3.45940000      -0.48281830       0.35260854      -0.78856496      -6.16212822       0.00023126       1.88572617      -2.84992546
C        0.63254000       2.78348000       5.05055000      -0.06570185      -0.31060201       0.20639133      -6.16212822       0.00023126       1.88572617       2.84992546
C        0.63254000       0.63344000       6.83402000      -0.51855283       0.13668238      -0.31795252      -7.90280367       0.00011625      -0.00007174       1.74139233
C        0.63254000       5.31723000       3.45940000       0.62345951      -0.00297010      -0.29685575      -6.16213566       0.00023126      -1.88526659      -2.84987471
C        0.63254000       4.05036000       5.93090000       0.35153026       0.36725770       0.04268709      -7.90281482       0.00011625      -0.00017815      -1.74110693
C        0.63254000       5.31723000       5.05055000      -0.34049209       0.91988495      -0.29365715      -6.16213566       0.00023126      -1.88526659       2.84987471
C        1.89763000       6.20041000       3.45940000      -0.32556316      -0.19811393      -1.18553234      -6.16213282      -0.00023126       1.88530032      -2.84990021
C        1.89763000       6.20041000       5.05055000       0.46249872       0.27719333       1.40160515      -6.16213282      -0.00023126       1.88530032       2.84990021
C        1.89763000       4.05036000       6.83402000      -0.00139329      -0.31409664      -0.38441756      -7.90279957      -0.00011625      -0.00017815       1.74142650
C        0.63254000       1.90031000       7.71438000      -0.26857392       0.48571652      -0.57963422      -6.16211513       0.00023126      -1.88554736      -2.85033459
C        0.63254000       0.63344000       1.67593000      -0.44789013      -0.36417058       0.05022741      -7.90280367       0.00011625      -0.00007174      -1.74139233
C        0.63254000       1.90031000       0.79557000      -0.45212682      -0.21975076      -1.03497233      -6.16211513       0.00023126      -1.88554736       2.85033459
C        1.89763000       2.78348000       7.71438000       0.93327658       0.16796430       1.53164145      -6.16211105      -0.00023126       1.88576351      -2.85035168
C        1.89763000       2.78348000       0.79557000       1.60064331       0.10989662       0.57450372      -6.16211105      -0.00023126       1.88576351       2.85035168
C        1.89763000       4.05036000       1.67593000      -0.93424179       0.03437576      -0.30149656      -7.90279957      -0.00011625      -0.00017815      -1.74142650
C        1.89763000       5.31723000       7.71438000      -0.42346433      -0.49243499       0.46667177      -6.16211849      -0.00023126      -1.88530393      -2.85030094
24
Lattice="2.53017074 0.0 0.0 0.0 6.83384267 0.0 0.0 0.0 8.5099505" Properties=species:S:1:pos:R:3:momenta:R:3:energies:R:1:forces:R:3 virial="0.9179031634948371 0.0 0.0 0.0 0.881053318046228 0.0 0.0 0.0 1.4601498699259126" config_type=Crystalline_RSS energy=-161.8189772460112 free_energy=-161.8189772460112 stress="-0.1274605354352771 -0.003103393704847906 0.006980575957072438 -0.003103393704847906 -0.05386199040834278 0.0205296409352105 0.006980575957072438 0.0205296409352105 -0.03438779816463102" pbc="T T T"
C        1.90014414       0.65689903       2.64328164      -0.31963373      -0.14692254      -0.20607054      -7.74215920       1.67255290      -1.16398715      -2.87506373
C        1.93053328       5.29559950       0.83743377      -0.18528532       0.91051539      -0.07076953      -6.23125834      -0.76904344       0.13040050      -0.76442292
C        0.61683942       6.23371416       7.64120824       0.26818545      -0.61436458      -0.61872916      -6.20473466       1.80346296      -1.05081251       0.42051620
C        0.66949265       6.22596315       0.72924743      -0.11322299      -0.72365765      -0.22103093      -6.24108409      -0.04630550      -0.77015532       3.33182267
C        0.64385185       4.04602455       2.64401804      -0.43057935      -0.36403006      -0.86323182      -7.84380852       0.14640952       0.35157745      -3.25869940
C        1.95218880       1.88727741       3.48958686      -0.24264370       0.84448825       0.06017345      -6.25454403      -0.94085959       0.62026806      -2.12563560
C        1.87186220       0.60640286       5.89455418      -0.41672848      -0.22621689       1.29545311      -7.86356617       0.13652713       1.81586014       3.10244925
C        1.87618720       1.84788666       5.08604594       0.26212570       0.78756800      -0.53857098      -6.20493732       1.18338590       1.28697110       1.18372735
C        0.68192707       2.83330121       3.43659930       0.41047963      -0.29190387      -0.15267893      -6.21502708      -0.71580922      -2.03847342       0.48385998
C        0.63962582       2.80948376       5.08312929       0.00623699       0.03471697      -0.19145581      -6.17169809      -1.38934348      -0.70069212       0.12529141
C        0.63130500       0.63130270       6.86591608       0.16636404       0.17563712      -0.30567624      -7.85370198      -1.58672799      -0.21110044      -2.63758005
C        0.62990942       5.26796988       3.46181139       0.33514784      -0.03046673       0.51642700      -6.20223448       0.80473268       2.11367127      -1.47676570
C        0.62258077       4.05793697       5.88250369      -0.48191610       0.22887102       0.64371231      -7.79179666       0.44486714      -0.14327058       2.67257366
C        0.62869287       5.30272205       5.05203734       0.32803950       0.59676788       0.61258101      -6.26324915      -1.52837756      -0.03184215       1.85535456
C        1.91046705       6.24286732       3.44853856       0.54008533      -0.69295417      -0.87210395      -6.13729177      -0.88526326      -1.22556355      -0.13302278
C        1.85919899       6.23664370       5.10800770      -0.40814777      -1.00081552       0.18459502      -6.22024046       1.83060752      -1.72677430      -1.09210076
C        1.87943471       4.05217715       6.88230162       0.50203014       0.27091182       0.32164067      -7.80975421       0.58383297      -0.41849128      -3.08174203
C        0.60468774       1.85313466       7.70137869      -0.16275007       0.54079855       0.38060230      -6.21924018       0.26190745       1.53046396      -1.47855869
C        0.65659170       0.62544808       1.61058127       0.10926558       0.35987143       0.87902420      -7.68512888      -0.95357228       0.92988027       2.27189124
C        0.61758103       1.87711330       0.81397833      -0.32596344       0.36616212      -0.29974874      -6.20999851      -0.09586574      -0.03359884       0.33665881
C        1.86546274       2.80410322       7.68489439      -0.14777154      -0.63850659      -0.33677805      -6.22958000       0.44005621      -0.27848160      -0.55386591
C        1.86400898       2.80627578       0.78867305       0.33025423      -0.98096764      -0.42899761      -6.22521462       1.18179882      -0.14713202       2.18400572
C        1.89842686       4.05582195       1.64838047       0.53800510      -0.09859538       0.19121868      -7.83667187       0.27529686      -0.25451243       1.90721879
C        1.91103971       5.28485097       7.68529273      -0.56157702       0.69309305       0.02041453      -6.16205697      -1.85426999       1.41579495      -0.39791209
24
Lattice="2.53017074 0.0 0.0 0.0 6.83384267 0.0 0.0 0.0 8.5099505" Properties=species:S:1:pos:R:3:momenta:R:3:energies:R:1:forces:R:3 virial="0.9179031634948371 0.0 0.0 0.0 0.881053318046228 0.0 0.0 0.0 1.4601498699259126" config_type=Crystalline_RSS energy=-162.18196372260675 free_energy=-162.18196372260675 stress="-0.13849409478283073 -0.004876237586122861 -0.011795065181279644 -0.004876237586122861 -0.01965991024106831 -0.022258683540898744 -0.011795065181279644 -0.022258683540898744 -0.029349452552625395" pbc="T T T"
C        1.87863562       0.64184614       2.60059752      -0.00591935       0.19657233       0.27171604      -7.95079864      -0.09831760      -0.70682799      -0.37301478
C        1.91306768       5.29259354       0.79802252      -0.06992750      -0.64328720       0.56746454      -6.21736994      -0.85364378       0.31005561       1.98613022
C        0.64226015       6.24213447       7.73606412       0.49927932      -0.04272958      -1.34796710      -6.06005422       0.80303854      -1.14966335      -2.91463158
C        0.64946734       6.21584757       0.85603613       0.68767254       0.61504764       0.46296304      -6.26202214      -0.52480732       0.02769031       0.20120089
C        0.61616750       4.05587887       2.58061601       0.55039089       0.25817094       0.40774156      -7.94445566      -1.38559663       0.71414722       0.47425497
C        1.89233740       1.86110279       3.43585450       0.19076146      -1.11507662      -1.00267536      -6.20537653      -0.71127278       1.45079225      -1.49239592
C        1.93166464       0.64253692       5.86800729      -0.30459077       0.31370281      -0.85230932      -7.90870431      -1.92296097      -0.47578661       1.85026284
C        1.89787577       1.87089606       5.02610506       0.07431646      -0.39381703       1.01350035      -6.18263097       1.96634797       0.78448670       2.04244042
C        0.61343001       2.82649082       3.45912703      -0.19650671      -0.14327406       0.53292490      -6.14368654       0.55289533      -1.02994259      -2.21229184
C        0.66672140       2.81462082       5.08442617       0.00624609       0.43119904       0.63688782      -6.17427235      -1.78318738      -0.80860557       0.73989270
C        0.63791088       0.65937101       6.82576031      -0.15813272      -0.03631584       1.26550750      -7.84021660       0.99221308      -0.97317806       0.93207325
C        0.58059224       5.30015796       3.41824763      -0.13553691       0.37443797      -0.39418088      -6.17847571       0.42273153      -0.02504289      -1.03144295
C        0.65436573       4.03185250       5.92816649       0.56850570      -0.15216474      -0.50153889      -7.97901040       0.38984142       0.50378671      -0.75194227
C        0.65047214       5.27290373       5.03371266      -0.52506445      -0.16391165       1.04388651      -6.15554207      -0.43265679       0.71150585       2.67786320
C        1.84094559       6.24035283       3.43490185      -0.35779883       0.15369639      -0.85607156      -6.16582108       0.85933203      -1.08891082      -1.29346150
C        1.90748468       6.22020452       5.05248726      -0.04708464       0.17856885       0.88753790      -6.21241270       0.79937082      -0.01743412       0.77750222
C        1.92046266       4.03299216       6.83709263      -0.52151193       0.03405614       0.21375894      -7.98710858      -0.08574307       0.61656149       0.89280321
C        0.64622310       1.87292444       7.72148892      -0.16977883      -0.41631062       0.75605664      -6.18037305      -0.80817024       1.01201776      -2.31112623
C        0.61883700       0.60941820       1.68143853       0.02787533      -0.25627082      -0.87493961      -7.95160832       0.95400629       1.09187681       0.15362043
C        0.64467910       1.85369852       0.82067029       0.01765752      -0.20751964       0.27378805      -6.13280571      -2.00227118       0.67821598       1.96600477
C        1.90086255       2.82870040       7.72768856       0.00960391       0.92816474      -1.44069550      -6.15447739       0.92692112      -1.66518252      -2.01996618
C        1.86920910       2.82090076       0.83617196      -0.50696574       0.91076162       0.26436128      -6.14029575       1.48779099      -0.35605368       1.05722596
C        1.85762430       4.07229872       1.66581812      -0.04561945      -0.31879414      -1.35949782      -7.92577083       1.56762723      -1.27977838      -0.05685801
C        1.93074341       5.26119627       7.69089847       0.41212859      -0.50490653       0.03178097      -6.12867425      -1.11348860       1.67526989      -1.29414383
24
Lattice="2.53017074 0.0 0.0 0.0 6.83384267 0.0 0.0 0.0 8.5099505" Properties=species:S:1:pos:R:3:momenta:R:3:energies:R:1:forces:R:3 virial="0.9179031634948371 0.0 0.0 0.0 0.881053318046228 0.0 0.0 0.0 1.4601498699259126" config_type=Crystalline_RSS energy=-162.07027959539698 free_energy=-162.07027959539698 stress="-0.18757033302559786 -0.005372275944170021 0.008603551548726673 -0.005372275944170021 0.001963333136337442 0.0005257228933399202 0.008603551548726673 0.0005257228933399202 -0.02148350894606708" pbc="T T T"
C        1.90914476       0.63667348       2.58310200       0.13785848      -0.65722281      -0.79019305      -7.94245172       0.98496150       0.37216355       0.66360578
C        1.88623473       5.28550234       0.79194591      -0.42780401      -0.12920016       0.03535535      -6.16898113      -0.10700562       0.61732432       2.17607977
C        0.58110915       6.22141821       7.70531301      -0.12265412       0.16146963      -0.21167353      -6.18501447       2.12919426       0.05615967      -0.98417322
C        0.60954909       6.21519480       0.86147968       0.20388007       0.42986860       0.55839025      -6.17296846       1.07280167       0.46387540      -0.54207431
C        0.63052747       4.05019485       2.62665544       0.38284411      -0.03414235      -1.53476012      -7.85714881       1.12846800       0.24320945      -1.02902905
C        1.93632587       1.88369865       3.43459309      -0.08848741       0.04757423       0.26719261      -6.17655827      -1.27828054      -0.84834698      -1.94331878
C        1.87378415       0.62669854       5.93116565      -0.26048833       0.16322937       1.34733981      -7.87024720       1.72004132       0.17149506      -1.39235606
C        1.89017550       1.89275733       5.04562088       0.38314199       0.06810452      -0.77625491      -6.14696635      -1.15218242      -1.27777266       2.52533267
C        0.65468308       2.78298491       3.44976783      -0.09187755       0.71501893      -0.21436881      -6.20734898       0.41996205       1.51538309      -2.24678528
C        0.60757192       2.80009051       5.01846472       0.49468943       0.33941515       0.41248028      -6.12808246       1.07029672       0.93099582       3.93912353
C        0.63632066       0.62319784       6.85757222       0.12505027      -0.03270116      -1.36510711      -7.87266984      -1.68713435       0.48779585       0.27445255
C        0.64100280       5.31807314       3.46339208      -0.39729927      -0.19075342      -1.38456866      -6.19000835       1.78230056      -1.54308297      -2.01785691
C        0.61946857       4.07019061       5.92526706       0.15499151      -0.15177270       1.22901643      -7.86426350       0.49928338      -1.29841394      -1.50355641
C        0.64916612       5.29372682       5.06396506       0.25878975      -0.26198409      -0.50879119      -6.19195520      -0.32735547       0.17530445       1.93804902
C        1.94852142       6.22119804       3.42754785      -0.13224444      -0.59163930       0.19926753      -6.18611108      -2.64062755       0.80809253      -1.64101626
C        1.91302931       6.19760726       5.03230393       0.06192128       0.36914036       0.05868772      -6.14441403      -0.66183688       1.32982742       2.84833178
C        1.89140300       4.06261640       6.84381525       0.03854075       0.24353821      -0.26612219      -7.98523443      -0.28913448       0.11482470      -0.90788117
C        0.63929767       1.86786938       7.73102407      -0.44341665      -0.56193169      -0.37179178      -6.19589966      -0.29607029       0.22246006      -3.20359039
C        0.63502559       0.64041768       1.67881350      -0.01956253       0.05365569       1.24277460      -7.92329641      -0.14264535      -0.40434372      -0.76060816
C        0.63495015       1.88025364       0.78591585       0.20392857      -0.36080507      -0.12762450      -6.23351538      -1.08097436      -0.58095011       3.38737790
C        1.89897499       2.80689676       7.66882736      -0.24283279      -0.40691158       0.79214143      -6.15448574       0.11896338       0.01807498       0.22137242
C        1.87956034       2.78872534       0.85382376      -0.84197086      -0.13798008       0.26124093      -6.16661068       1.90666189       0.72888536      -0.29928089
C        1.92354757       4.04651110       1.67603585       0.04799319       0.24694387       0.88512892      -7.84646926      -2.17170747      -0.32396127       0.31872033
C        1.87266609       5.32842236       7.66298795       0.57500856       0.67908586       0.26223999      -6.25957819      -0.99797994      -1.97900005       0.17908113
24
Lattice="2.53017074 0.0 0.0 0.0 6.83384267 0.0 0.0 0.0 8.5099505" Properties=species:S:1:pos:R:3:momenta:R:3:energies:R:1:forces:R:3 virial="0.9179031634948371 0.0 0.0 0.0 0.881053318046228 0.0 0.0 0.0 1.4601498699259126" config_type=Crystalline_RSS energy=-161.96782097628233 free_energy=-161.96782097628233 stress="-0.1567100550738612 -0.0031154620910605795 -0.0002799562370095053 -0.0031154620910605795 -0.05646693667007397 0.02073628370567259 -0.0002799562370095053 0.02073628370567259 0.005260058008707706" pbc="T T T"
C        1.92138062       0.62940140       2.66529248       0.09264776       0.22741338      -0.49300849      -7.65460640      -1.70815443      -0.05978658      -3.08003757
C        1.91445160       5.28282641       0.84241313       0.21950417      -0.07379336       0.48110479      -6.23856126       0.39746629       1.60123796      -1.10211020
C        0.61212151       6.21492984       7.62865629      -0.44320867      -0.89074555       0.30726273      -6.26336660      -0.25092863       0.66055144       1.49305640
C        0.65220198       6.22809418       0.83732483      -0.65468051      -0.53799786      -0.39628604      -6.16875245      -0.81724706      -0.79129165      -1.03045511
C        0.64803451       4.05778082       2.60064570      -0.36251635      -0.49219623       1.23503192      -7.84395386      -0.64403594      -0.33210209      -1.62575132
C        1.89190327       1.87667128       3.50062688       0.22194609      -0.40247276      -0.11058762      -6.22854231      -0.14222083       0.57887049      -1.85086639
C        1.89749809       0.64264546       5.84491148       0.00279555       0.23211895       0.20810454      -7.73090985      -0.67760960      -0.51719014       6.47458916
C        1.86508476       1.87483714       5.11500630      -0.68276614      -0.36924857       0.88805916      -6.26902140       0.53632249       0.43172138      -2.04224067
C        0.61628714       2.80245002       3.41201152      -0.00799667      -0.13219293      -1.01503827      -6.21985301       1.13562425       0.18726523       0.41153784
C        0.59571974       2.78537879       5.07552758      -0.16553223      -0.12394334      -0.38010766      -6.24964022       0.58187766       0.31947360       0.65578029
C        0.61319638       0.62986170       6.83461381      -0.08900633      -0.19781241       0.64732719      -7.77936364       1.77245388      -0.02226621      -2.48843804
C        0.63135832       5.30786343       3.44467749      -0.31928706      -0.05749569       0.54239397      -6.28800384      -0.08258395      -1.09086600      -0.73248500
C        0.62190382       4.03467692       5.88989380      -0.38366039       0.63179308      -0.91264214      -7.79099615      -0.76468403       0.87532284       2.61581103
C        0.61714770       5.30025842       5.10458723       0.45714685       0.46327392       0.19806922      -6.19710081       1.48522343      -0.30461419      -0.35450057
C        1.88778948       6.18938011       3.44690595       0.54800734       0.08001920      -1.07824183      -6.27438443       0.93197779       1.30198140       0.57263278
C        1.91243879       6.22481069       5.11855157      -0.64774493       0.33928796       0.80500930      -6.18640412      -1.73242647      -0.78234599      -2.31861324
C        1.88341767       4.06750520       6.87419103       0.03887044      -0.32230810      -0.59809148      -7.77160972       0.39146480      -0.92681936      -2.47227886
C        0.68180384       1.86840020       7.65633367       0.40513614       0.74311563       0.09837887      -6.22110608      -2.41957036       0.61351004       0.05187356
C        0.62810349       0.64374562       1.62484598       0.25972345       0.16602997      -0.68636004      -7.72363677       1.77752523      -0.14503181       3.64842690
C        0.65714722       1.87848468       0.80979919       0.52376860       0.37204018       0.08410842      -6.25516485      -1.83669830       0.53266436       0.00052603
C        1.92068402       2.80474856       7.66734266       0.04316136       0.60501940       0.08641791      -6.20960377       0.67913339       0.07500288       0.37896362
C        1.89821425       2.82134972       0.81295786      -0.21364024      -0.05466614       0.29510691      -6.24109858       1.81701220      -1.06776860      -0.22142849
C        1.92256466       4.05509452       1.61837528       0.72219884      -0.49356226       0.69181631      -7.84441093      -0.96521275      -0.32926496       3.37391756
C        1.87158715       5.31972487       7.69390829       0.43513294       0.28832354      -0.89782766      -6.31772994       0.53529094      -0.80825404      -0.35790972
24
Lattice="2.53017074 0.0 0.0 0.0 6.83384267 0.0 0.0 0.0 8.5099505" Properties=species:S:1:pos:R:3:momenta:R:3:energies:R:1:forces:R:3 virial="0.9179031634948371 0.0 0.0 0.0 0.881053318046228 0.0 0.0 0.0 1.4601498699259126" config_type=Crystalline_RSS energy=-162.30949628058374 free_energy=-162.30949628058374 stress="-0.1762630873392542 -0.0012194198173913276 -0.010004285652219232 -0.0012194198173913276 0.0015507709342897221 -0.023641121931262016 -0.010004285652219232 -0.023641121931262016 -0.0012825619453071266" pbc="T T T"
C        1.86392514       0.63884020       2.56636722       0.23848562       0.06307725       1.33733809      -8.00010157       0.98927605      -0.46995811       1.76539109
C        1.89566758       5.30511851       0.85116353       0.54575712       0.62627435      -0.34735437      -6.11858978      -0.12460121      -0.72761160       0.49561422
C        0.64651541       6.19814503       7.71107233      -1.39785214       0.56248089      -0.38211222      -6.18995093      -0.89998435       1.51469947      -1.78305320
C        0.63048532       6.22889890       0.83352492      -0.77821316       0.02867764       0.93562205      -6.21577603      -0.11556694      -0.40287412       1.23028236
C        0.63376819       4.06544672       2.61280285       0.34383566      -0.49757176       0.32072198      -7.97656213      -0.90960977      -0.75524543      -0.06022986
C        1.87222320       1.87327606       3.40976340       0.29210413       0.26734785       0.90793710      -6.20753186       0.67534580       0.36903078      -1.00841143
C        1.91882390       0.64932218       5.95523730       0.76962280      -0.39582083      -1.41002107      -7.96831342       0.85496950      -0.37800358      -2.46728665
C        1.94456043       1.87307245       5.02020807      -0.41349589       1.05955855      -0.16036902      -6.12246222      -1.24700549       0.60545310       3.04151469
C        0.62985980       2.82421193       3.43793196      -0.25093137       0.22450407      -0.48682984      -6.15423727      -0.65170164      -0.65679118      -0.57614234
C        0.65359923       2.82276180       5.08357510       0.33045346       0.39141641       0.81768502      -6.15721634       0.65625919      -1.30248653       0.10194998
C        0.65688370       0.64817315       6.82667755      -0.18252465       0.54487969       0.05585780      -7.90310493      -0.29363324      -0.40447379       2.68217786
C        0.60894755       5.29551063       3.41713250       0.21020863       0.07225111       0.03590191      -6.27046695       0.32884356       0.29746678      -0.18870482
C        0.63957510       4.03888886       5.92523138       0.19960560      -0.11855931       0.13347692      -7.94022251       0.72756947       0.65072597      -2.09081168
C        0.67098118       5.28128590       5.01627411       0.26971015       0.01728083       1.49637669      -6.12568368      -0.38393064       0.95710137       3.16531587
C        1.86647215       6.22152453       3.42112669      -0.09801023      -0.22964263       0.01554907      -6.14951769       0.23285003       0.25329998      -0.46928958
C        1.93800037       6.23602627       5.11654204       0.31398225      -0.43941597      -0.70708505      -6.10249424      -0.55662132      -0.63052921      -0.52547251
C        1.91247593       4.04404728       6.80099472      -0.10120058      -0.03056340       0.96011839      -8.00229994      -1.09050055      -0.23686656       1.73749146
C        0.64534089       1.88958021       7.70941425       0.04717244       0.11458291      -0.58422788      -6.21257909      -0.54145023      -1.05534740      -1.86231263
C        0.62604576       0.62873889       1.70156081      -0.35145880      -0.77032427      -0.61428612      -7.92762665      -1.49918837       0.26352193      -2.89659622
C        0.58333297       1.86215400       0.81558095       0.37776362      -0.33736678       0.89612776      -6.16145927       1.03406086       0.28951817       1.79119519
C        1.89486288       2.78705364       7.66555852       0.06136208      -0.72438756      -0.27622490      -6.18992397       0.91717965       1.43225066      -0.49728722
C        1.85830815       2.79244899       0.83070457       0.00470852      -0.73457814      -1.54551141      -6.11887662       0.00269287       0.64052546       1.49481909
C        1.88250389       4.05199869       1.73772642      -0.75570818       0.32064320      -1.24258477      -7.91850102       0.44286215       0.00758282      -3.25051803
C        1.88888130       5.28439517       7.65322881       0.32462291      -0.01474409      -0.15610614      -6.17599816       1.45188464      -0.26098899       0.17036436
24
Lattice="2.53017074 0.0 0.0 0.0 6.83384267 0.0 0.0 0.0 8.5099505" Properties=species:S:1:pos:R:3:momenta:R:3:energies:R:1:forces:R:3 virial="0.9179031634948371 0.0 0.0 0.0 0.881053318046228 0.0 0.0 0.0 1.4601498699259126" config_type=Crystalline_RSS energy=-162.48208735311658 free_energy=-162.48208735311658 stress="-0.14151470954778506 0.005133210568500961 0.013132362436902823 0.005133210568500961 -0.03593322258760843 -0.01105756813277216 0.013132362436902823 -0.01105756813277216 0.01254162045831804" pbc="T T T"
C        1.90738038       0.65633409       2.57528907      -0.61322676       0.35018512      -1.44079321      -7.94786073       0.06035270      -0.86317674       0.73213881
C        1.93673152       5.28377747       0.83134020       0.67759592      -0.11546385      -0.16313698      -6.21491888      -0.62222084       0.39741422       0.61207979
C        0.65783837       6.23087109       7.68404115      -0.26017090       0.36599875       1.09298262      -6.14146547      -2.21439466      -1.22033643       0.15225011
C        0.66281891       6.22996231       0.87546298       0.05841674      -0.46195072      -0.60785433      -6.21094539      -0.29128183      -0.25682849      -1.13556885
C        0.66602836       4.03088808       2.58364912      -0.67930339      -0.01730292       0.18370246      -7.96001574      -0.68184390       0.71824299      -0.05865518
C        1.92064712       1.86739551       3.40866045      -0.72399667      -0.30652632      -0.53673796      -6.27907898       0.52111861       0.78722354      -0.36296697
C        1.89215563       0.61292920       5.88738381      -0.05544612      -0.40637560       1.54837848      -7.86097080      -0.83432601       0.59820918       1.21164659
C        1.87973762       1.84451296       5.01841880      -0.15870577      -0.31403312      -0.75741688      -6.15196150      -0.00480362       1.82039719       2.65269017