24
Lattice="2.53017074 0.0 0.0 0.0 6.83384267 0.0 0.0 0.0 8.5099505" Properties=species:S:1:pos:R:3:forces:R:3 virial="0.9179031634948371 0.0 0.0 0.0 0.881053318046228 0.0 0.0 0.0 1.4601498699259126" config_type=Crystalline_RSS pbc="T T T"
C        1.89762762       0.63343778       2.58556678       0.00000477      -0.00000483      -0.00568222
C        1.89762756       5.30754112       0.78797622       0.00000217       0.01355125      -0.02962339
C        0.63254237       6.21009920       7.72197365       0.00000031      -0.01360726       0.02963233
C        0.63254244       6.21009887       0.78797627      -0.00000382      -0.01357532      -0.02961314
C        0.63254241       4.05035796       2.58556734      -0.00000753       0.00002530      -0.00569561
C        1.89762766       1.89061854       3.46699908      -0.00000359       0.01358138       0.02960312
C        1.89762758       0.63343778       5.92438346       0.00000165      -0.00002074       0.00565596
C        1.89762770       1.89061848       5.04295092       0.00000002       0.01358590      -0.02959687
C        0.63254233       2.79317600       3.46699889       0.00000382      -0.01356064       0.02961588
C        0.63254236       2.79317587       5.04295099       0.00000001      -0.01355985      -0.02962434
C        0.63254235       0.63343777       6.84054153      -0.00000164      -0.00001392      -0.00566377
C        0.63254232       5.30754128       3.46699902      -0.00000136       0.01353170       0.02958852
C        0.63254240       4.05035804       5.92438253      -0.00000401       0.00001074       0.00569633
C        0.63254233       5.30754113       5.04295131      -0.00000301       0.01356864      -0.02960521
C        1.89762761       6.21009858       3.46699874       0.00000318      -0.01357251       0.02960551
C        1.89762761       6.21009866       5.04295107       0.00000492      -0.01357667      -0.02958941
C        1.89762759       4.05035805       6.84054186       0.00000387       0.00001865      -0.00568490
C        0.63254234       1.89061811       7.72197381      -0.00000010       0.01360288       0.02963841
C        0.63254241       0.63343780       1.66940828      -0.00000268      -0.00001888       0.00567795
C        0.63254243       1.89061808       0.78797607      -0.00000305       0.01359421      -0.02962196
C        1.89762762       2.79317607       7.72197418       0.00000322      -0.01357564       0.02960330
C        1.89762769       2.79317616       0.78797592       0.00000092      -0.01358476      -0.02961779
C        1.89762760       4.05035784       1.66940812       0.00000190       0.00003346       0.00569035
C        1.89762769       5.30754081       7.72197398       0.00000024       0.01356700       0.02961183
