36
Lattice="6.163743 0.0 0.0 0.0 6.163743 0.0 0.0 0.0 8.218324" Properties=species:S:1:pos:R:3:momenta:R:3:forces:R:3 virial="7.324435467915814 -1.3691905013204728 1.5736151506864136 -1.3691905013204728 -10.260009212337337 7.134474633720599 1.5736151506864136 7.134474633720599 -2.2939334134585585" config_type=Amorphous_Bulk pbc="T T T"
C        0.57378000       1.17009000       4.07436000      -0.11124133      -1.04036098       0.06986065      -0.20086622      -1.00161052       2.46074557
C        0.89629000       4.88797000       0.07276000       0.62968582       0.17093183      -0.38517975      -0.87537891       0.01172452       0.95284963
C        2.54043000       3.44895000       7.34780000      -0.11465605       0.56666071      -0.87892163       5.62572193       1.92930126      10.99490166
C        4.84841000       2.41263000       7.22344000      -0.32547210      -0.54044015       0.32652879       1.86310673      -4.28942394      -1.30696905
C        5.28632000       0.52287000       0.98788000       0.18468846       0.80488654      -0.21654238       0.17954430      -1.13646162       1.66529620
C        4.07918000       0.53219000       1.98739000       0.64244401      -0.16391042      -0.27559587       1.38047230      -0.26717353      -0.43551511
C        0.94356000       4.03255000       5.77537000      -0.66466760       0.56377791      -0.48778098       3.33212900       1.27077842      -2.80145931
C        3.03133000       5.98555000       7.72892000       0.79751532      -0.58972876       0.32307605       3.51104236       0.73683906      -4.75638199
C        2.54563000       3.83700000       2.95925000       0.54613954       0.48916619       0.31644212       1.51177406      -1.72674716      -1.33371973
C        1.73480000       0.41012000       4.39522000       0.16003196       0.22278359       0.26015150      -1.72323227       1.75353336      -3.67793131
C        4.38668000       2.75246000       4.64926000      -0.38782307      -0.05139467       0.72455766      -1.17062140       3.92303491       0.44171190
C        2.04413000       3.34240000       1.75662000      -0.53158331      -0.74415625       0.13457887      -0.12345581      -1.57951057       0.98262906
C        4.28023000       5.50125000       4.34532000       0.44375140      -0.36907085      -0.00728551      -2.87757421       1.59131312       1.01936710
C        1.00174000       5.53857000       6.58505000      -0.25787724      -0.16622870       0.60263287       0.64369941      -1.77545261       2.11390114
C        4.73002000       4.36013000       6.64212000       0.43870830       0.47194485       0.04645781      -2.57310009       4.23918915       5.65415287
C        1.94183000       3.88027000       0.38394000      -0.92473459       0.46765496      -0.43125229      -3.46042228       3.19910145      -0.58857501
C        6.09101000       0.39639000       6.35860000      -0.42980658       0.03879837      -0.46525924       0.49092525      -3.71641135       3.63581753
C        4.92413000       4.11009000       5.33541000       0.68907576       0.03561590       0.22742366      -2.48175430       2.81595659      -4.65148878
C        4.65572000       5.75968000       7.16090000      -0.69178921       0.57823415      -0.21667366      -1.25121844      -1.18544781      -2.33028102
C        4.81604000       1.86793000       5.73643000       0.79424169      -1.29311629       0.27630353      -0.09427586       2.71455407      -2.11965656
C        5.59863000       3.80368000       3.34960000      -1.12891980      -1.19591719       0.08960492       5.86450863      -2.15532851       0.92609477
C        1.11832000       2.08866000       2.02172000      -0.29398743      -0.17308604       0.04886868      -0.48969609       2.33651996      -2.04851675
C        2.89866000       0.46052000       4.97999000       0.07266641       0.06633719      -0.35361249       2.19208217      -4.13444090       0.73368424
C        5.79133000       5.09356000       2.55370000       1.31159799      -0.39086840      -0.70958254      -1.96373701      -3.96965098      -2.79036975
C        3.02606000       3.07656000       4.13231000       0.37475719       0.10155678      -0.02541507       0.08666323       1.05745280      -3.75811076
C        5.75331000       1.64757000       8.03350000      -0.13871750       0.68663530       0.35905878      -0.68521351      -0.83020741       1.15041387
C        2.20894000       3.40741000       5.11665000       0.64917488       0.05381572       0.44269159      -2.80785608      -0.14535695       3.62588382
C        0.10200000       1.61554000       1.18283000      -0.42907884       0.18826353      -0.21810587       0.41812497       0.22593227      -4.11896801
C        2.08588000       2.85652000       6.37078000       0.04666397       0.61764873       0.23726035      -4.78340816      -2.24676061      -6.82124853
C        2.39572000       6.01911000       6.19986000      -1.38326847       0.26662085       0.34700837       0.57197070       0.23854917       5.97066307
C        0.31271000       2.12372000       3.17664000      -0.31464691      -0.34341454       0.04957417       0.51746553       3.70032167      -0.76876342
C        4.52840000       5.82420000       3.02899000      -1.04757993      -0.59935466      -0.17191745       1.33176386       0.40777943      -0.64441943
C        4.03542000       3.48001000       7.54095000      -0.41069551       0.32368455      -0.26491121      -0.52504790       0.54503566      -0.69529980
C        5.91820000       5.18782000       1.04323000      -0.18364862       0.91421425       0.10809939       2.52926660       2.73453903       0.46135366
C        0.02556000       4.44826000       4.80391000       1.59538617       0.45646901       0.01831838      -2.41054511      -3.48113561      -2.90933752
C        5.96069000       1.22889000       5.21665000       0.39366523      -0.42465303       0.09953779      -1.55285621      -1.79033470       5.76754665
36
Lattice="6.163743 0.0 0.0 0.0 6.163743 0.0 0.0 0.0 8.218324" Properties=species:S:1:pos:R:3:momenta:R:3:forces:R:3 virial="7.324435467915814 -1.3691905013204728 1.5736151506864136 -1.3691905013204728 -10.260009212337337 7.134474633720599 1.5736151506864136 7.134474633720599 -2.2939334134585585" config_type=Amorphous_Bulk pbc="T T T"
C        0.72152750       1.52705881       4.13152579      -0.06012087       0.78003275      -2.37812294       1.13662720      -4.70542860       3.78602695
C        0.92657838       4.95150403       0.25807314       1.37663585       0.93656979      -0.49963031       0.40638411      -0.51759475       0.44176215
C        2.60413819       3.31579709       7.78679887       0.48428701       0.55433241       0.35161328      -0.53335822      -0.03046227      -1.46586013
C        4.61192437       2.15649055       7.04716433       0.12888358      -1.13354225      -1.34305661       1.80465424      -3.06159019      -1.03172016
C        5.56189764       0.34967133       1.42861278       0.38318605      -1.47393430       1.52288921       0.53626192       3.06498432      -1.86414325
C        4.57323288       0.60397104       2.32181444      -0.52735413       0.23829687       1.53437004      -1.81123304      -1.11664772       0.84616041
C        0.90446561       4.48358123       5.58027581      -1.30943304       1.10314516       1.41147472       2.72536898      -1.87679052       0.79416627
C        3.49746081       6.66061314       6.98295239      -1.16970037       2.26028032      -0.89310295      -1.64258826       0.30081880       0.24554802
C        2.98288731       3.04517443       2.72075445      -0.20548520      -1.72810668       0.50976377      -0.41324085       0.74782819      -0.81720114
C        1.93793460       0.60588382       4.08105663      -1.24014506      -0.24172661      -0.53104657      -2.50427151       1.62344837      -0.70499307
C        4.24053982       2.88046735       4.75311546       0.56095554      -2.29015913       0.29953286      -0.18729283       3.88897276      -1.73656154
C        1.96966837       3.25356212       1.84581863       1.07762460      -1.52030175      -1.84899564      -0.26531285      -1.80145311      -0.36361104
C        3.85218590       5.27151011       4.30698115       0.88442755      -3.13135758      -0.84395133       2.29069757       0.73470312      -4.17887974
C        1.08027913       5.79238522       7.03962157      -0.14506302       0.94689181      -0.09141079      -1.59721684      -3.24317169      -0.24201623
C        4.40869073       4.47946331       6.67200444      -0.21017345       1.96989857       1.82631540       1.04650331       1.21946287      -0.52835780
C        1.87142947       3.96107568       0.64199476      -1.78883327       0.69876615       1.54284689       0.41701967       1.85162473      -4.78199720
C        6.19722243       0.58681830       6.68342302       1.70550916      -1.97373174      -0.61850185       0.37774143      -0.21843338       1.05352378
C        4.58560983       4.37164374       5.11458814      -0.88355257      -1.45258446      -0.51990906       1.63292944      -0.12845990       1.71684849
C        4.46735754       5.79222875       7.18601019      -0.37127154       0.40795713       0.12880951       1.82353604      -1.53593910      -1.37112355
C        4.93037505       2.17053546       5.61661790      -0.54626480      -2.64225918       0.79039221       2.52732491      -4.50611019       1.41036439
C        6.06147852       3.64875118       3.48612382      -3.12618407       1.63365601       0.38865409      -2.89539337       7.16784859      -1.34716070
C        0.89285434       2.28038329       1.80503037      -0.21428978      -0.20667199      -0.34020819      -2.55462670      -0.22146606      -0.08638814
C        2.69086833      -0.36044526       4.57720273       1.30385218       2.00146948      -0.17405900      -4.08556461       4.71403122       2.18183017
C        5.59146118       4.70770089       2.55096098       0.38892903       1.31189543       0.94145652      -0.89660430      -2.13202906      -1.24304223
C        3.07737542       2.89539452       4.01790641      -0.68538288      -3.39286109       1.10212511      -1.91931319      -1.04450321       0.67646152
C        5.80703297       1.58739011       7.66569694       2.81450306       5.13254351       0.60184235       0.73338878       0.88972110       1.29353392
C        1.86472687       3.38806768       5.21630100      -0.13072496       0.30929997      -0.57470359       1.43418634       0.06134215       4.22511625
C        0.02657467       1.58734154       0.89703109      -0.80327411      -2.84375101      -0.34757543       1.23152876       0.15242417      -1.14128304
C        2.05576263       2.86532314       6.53476620       0.88814826      -1.92713648      -0.62647595       0.18459815       1.39760494      -0.56034207
C        2.34735690       5.98001135       6.50937813      -0.04132384       0.86198089      -1.27546627       2.28804731       2.59016466      -0.28850508
C        0.36042052       2.51016850       3.18977631      -0.41562164       1.11234624      -1.29970154       3.08924246      -7.05883360      -1.31235063
C        4.33454639       5.50661170       2.92003634       0.64356944       0.45308851       0.99405445       2.61666441      -0.60272467       2.57754970
C        4.01915954       3.32938887       7.34671185       0.79712839      -2.19650009      -0.50956934      -2.93084192       2.38438177       3.17280483
C        6.05401152       5.16662073       1.23895204      -0.68259844       0.61516857      -1.21627410       0.10171088       1.58050501       1.29369056
C       -0.03769828       4.41198279       4.69250796       0.50537112       2.97202765       0.97049349      -4.87477160      -0.20556247       1.22295928
C        6.03975291       1.34699346       5.40976392       0.61378623       1.85497713       1.01512754       0.70721495      -0.36266685      -1.87281024
36
Lattice="6.163743 0.0 0.0 0.0 6.163743 0.0 0.0 0.0 8.218324" Properties=species:S:1:pos:R:3:momenta:R:3:forces:R:3 virial="7.324435467915814 -1.3691905013204728 1.5736151506864136 -1.3691905013204728 -10.260009212337337 7.134474633720599 1.5736151506864136 7.134474633720599 -2.2939334134585585" config_type=Amorphous_Bulk pbc="T T T"
C        0.60674835       1.25194011       4.14703089       0.26800172       1.28274998      -1.78991987       1.02887416       0.57188952      -0.54155314
C        0.95502649       4.93024157       0.23018000       1.01780384       0.04037460       0.11291367       0.69957256       1.90449643      -1.54480958
C        2.75666666       3.22666295       7.73379653      -0.21892092      -1.42255222      -0.81399351       0.27074486      -0.05157357      -0.86759645
C        4.83820253       2.03705164       7.00465617      -1.35116112       2.19509198       0.65030927      -4.00144768       1.79229236       0.60674143
C        5.46320196       0.42281404       1.36805979       1.24839843      -1.42855796       1.28048440       1.03395653       2.27149892      -3.20829916
C        4.53478068       0.64455852       2.30841155      -0.46669487       0.06255908      -1.23231442      -1.59083855       0.49854267       0.06356868
C        0.91693613       4.52174093       5.58027847       0.44694917       0.45715601      -0.98764271       0.19720677      -0.87509447       1.09996939
C        3.90639383       6.71236708       7.03501880      -0.85766108      -0.03402635       0.50481585       0.07420859       0.67784661       1.91938818
C        2.73440822       2.94798239       2.56199526       1.39444850       2.05098210      -1.09138982      -0.71889490       0.93366563       0.60854721
C        1.96280257       0.79168148       4.13985729      -0.85436797       0.00340939       2.79635480      -1.31762505       0.21536833      -0.07071882
C        3.90990139       3.00890499       4.93157220      -1.33759903       0.18570882       1.19042806      -0.17022204      -3.30821824      -3.91835093
C        1.63233967       3.21953805       1.72908823      -2.57193730       0.92344220      -0.77668922       2.78753948      -0.15969703      -2.74594450
C        3.99268289       5.63755673       4.38211247       0.59241737       0.22567502      -0.95332469       0.13992292      -3.96549273       0.03227749
C        1.31354523       5.74298385       6.94577834      -1.37542388       0.61416949       1.06684802      -3.14603758       0.40775472      -1.77793908
C        4.49321023       4.42703595       6.70562147       1.18225424      -0.92916956      -0.43492466       0.31064701       0.25077170      -0.16022901
C        1.87523541       3.94002416       0.34614815      -1.19663644       1.31988544      -1.39400210      -1.11384714      -0.86645174       3.77846956
C        6.14996913       0.37143484       6.52449595       2.85182277       1.01220464       0.09172320       2.27629948      -0.87641436       3.44987464
C        4.47264238       4.29943608       5.15745957       1.35642478       1.32773572       1.55885201      -0.28112960       3.50260639       1.99672294
C        4.86663340       5.73572582       7.03117389      -2.33096552      -1.49365898       0.44961526      -0.26154912       2.75254273      -0.57121104
C        4.87101456       2.06063899       5.57754036       0.25970153      -0.55105016      -2.03120376       0.14781809      -0.51014590      -2.98085833
C        6.07392965       3.65310550       3.41306764      -1.46332968      -0.88414687      -0.09641406      -1.13108456       1.47183013       3.00080800
C        0.56157271       2.30916396       1.75556600      -0.81168912       0.13092619      -1.24665098      -0.18764034      -0.28579828      -0.79760545
C        2.88294642       0.10905368       4.89460399       2.04462162       0.79362374       1.33377368      -2.90335822       1.96905172       0.46857485
C        5.64822574       4.89053754       2.66078094       1.63854759      -0.48298944      -0.12704418       1.12362075      -5.18836260      -1.80468917
C        3.19505457       2.80375844       3.71975925       1.91101068       0.18093759      -1.19438913       0.35715449      -0.27052778       0.53182870
C        6.03027934       1.64147639       7.58443567       0.49475214       0.56036202      -1.33888001       1.90496004      -0.61062801      -1.83446240
C        1.61418021       3.35862437       5.66488216      -1.10506313      -1.89573471       3.07626946       0.19548364       0.38751414       0.98795211
C       -0.14359630       1.66258113       0.75787245      -1.12086625      -2.83620360      -0.62855598       1.49314690      -1.73336315       1.09101534
C        2.00974833       2.58176420       6.66299471       0.42559287      -0.79343701       1.97304940       0.67618555      -1.23114502       0.38879314
C        2.56497225       6.58708000       6.59542129      -1.55319789      -0.44446246       0.59815815      -1.11667836      -1.01819253      -1.61001873
C        0.13134359       2.29709820       3.12750405      -0.45030221       2.01783506      -0.17873372       0.30431080       0.47360742       1.26532865
C        4.41981922       5.62573661       3.00865042       1.90819657      -0.58175521      -0.03820402       1.18102980       0.52343673       2.92533565
C        4.22622099       3.35104731       7.56794653      -0.10290620      -1.22902451      -1.80165213      -1.56678450      -1.93303061       0.11767882
C        6.11893511       5.32315123       1.29822584      -0.66863619      -1.22906612       0.58689780       0.45850819      -0.14696318       0.73071134
C       -0.28246798       4.01891948       4.96002404       2.02851144       0.93379186       0.50479875       2.38240910       0.80709600      -2.57058263
C        5.80758443       0.96770179       5.14533963      -1.23209644      -0.08278579       0.38063720       0.46353805       1.61928749       1.94128227
36
Lattice="6.163743 0.0 0.0 0.0 6.163743 0.0 0.0 0.0 8.218324" Properties=species:S:1:pos:R:3:momenta:R:3:forces:R:3 virial="7.324435467915814 -1.3691905013204728 1.5736151506864136 -1.3691905013204728 -10.260009212337337 7.134474633720599 1.5736151506864136 7.134474633720599 -2.2939334134585585" config_type=Amorphous_Bulk pbc="T T T"
C        0.71292719       1.35270351       4.32378680       0.57657275       0.12116269       0.03624516       0.03019935       0.40800500      -2.76422071
C        1.00645699       5.01438807       0.19752284      -0.98407038       0.27793169       0.14353702      -2.13966465       1.72845578       0.15508267
C        2.29138222       3.22541553       7.43851402      -0.37480707       2.72704882       1.33507226       5.13714409      -0.31219649       3.48119164
C        4.57389115       2.06406265       6.90329503       1.44765258      -0.02017235      -1.42459022      -2.90984797       2.53159165      -0.42053145
C        5.38387155       0.39309290       1.26673058      -0.31894707      -0.10270898       0.51720628       0.90420401       1.71917176      -1.24298370
C        4.51873928       0.52412742       2.29938348      -2.54411553       1.71058482       1.79510161      -1.23710608      -0.86004305      -0.38902324
C        0.85924272       4.27958909       6.01360522      -0.24944149       0.62860003      -1.62907969       1.38763714       0.74158853       0.61177224
C        3.73041744       6.91802796       7.14994983      -0.82599356      -0.57996372      -1.60238455      -1.53633797      -0.64652520       0.50941038
C        2.75116196       3.26319610       2.49487940       1.46608359      -0.43134715       0.05628928      -1.15590358       0.82280731      -2.43552279
C        1.86707293       0.58010251       3.99392022      -0.68930506      -1.03882415      -1.06853746       0.16843741      -0.20076112       3.09848022
C        4.35665950       2.74697187       4.25806208      -0.40423806      -0.72743521       0.39279867       1.88267839      -3.12836456       6.05640221
C        1.77661791       3.24005516       1.60446796       0.40785317      -0.40364068       0.70854701       0.01776975      -1.31257832      -3.33947253
C        4.07259701       5.48690076       4.43381335       0.30751449       0.03590698      -3.36516155      -2.45729208       0.99095219      -3.22379541
C        1.03435805       5.58196052       7.02911067      -0.93053933      -0.19519745       2.80249899      -0.02292632       1.60034287      -1.71682644
C        4.34867074       4.54577170       6.63144818      -1.27820625      -0.38840750      -1.18438800      -0.32641032      -0.14036265       0.41969705
C        1.83495770       4.00943645       0.28239577      -1.55641783      -1.13831573       1.14036603      -0.04582042      -2.26478577       4.61869240
C        6.04517377       0.41851528       6.74414836      -0.70829700       0.10717982       1.78160823      -0.81956726      -5.07155895      -2.23023796
C        4.86354017       4.71248863       5.25150893       1.71184171       1.23826538      -1.28360815      -1.18136597      -0.83116245       1.31301677
C        4.59873201       5.87481321       7.04657351      -1.88926681       0.91827376      -0.69811252       1.69650865       1.48336387       0.85639095
C        4.72322472       1.97372383       5.41777782       3.43999697       0.12057679       0.88918020       3.12113523      -0.80798924      -2.22227573
C        6.45437618       3.91215714       3.58949874       1.26654418      -0.56451326       0.70909845      -0.77100861      -2.39027023      -2.42555714
C        0.83603573       2.07873737       1.72754273       0.30438510       0.52742586       0.45479367      -1.63801765       4.11439514       1.32123518
C        2.80704994       0.04200863       4.73909628       1.02725732      -1.34312001      -2.33047240       0.65969527      -0.97398555      -2.19101977
C        5.81687247       4.81597763       2.55846249       0.97228817       1.00007103       0.03322009      -0.35723484      -1.77897656       0.76516205
C        3.53722865       2.98643287       3.37160770       0.89009825      -0.47498012       0.83284362      -0.45020121      -0.28783077      -0.23290476
C        6.24110105       1.58846865       7.50823268       1.90018589       0.68462092       0.59788644      -2.02214956       3.41557002       1.95133960
C        1.67392557       3.20898392       6.26414547      -0.43513853       1.28622275      -2.99903726      -3.27465987      -0.52508867      -3.67172074
C       -0.15890843       1.68263092       0.73436529      -0.11621500       0.73353446       0.75872175       2.28483915      -2.49608040       1.85252607
C        1.45202589       1.94884500       7.11200244      -2.12273683      -0.53785342       0.33941175       3.72924638      -0.58442485      -2.08238149
C        2.30563376       6.71496605       6.90382093      -0.51306322      -0.47125677       2.40955209      -1.45233452       2.83302140      -0.06785588
C        0.49791708       2.47811395       3.24739298       1.17382226       1.43534746       1.52168040      -0.26604822      -1.10716414       0.56874275
C        4.47304169       5.48800825       2.99129174       0.69928987      -0.79892305      -0.87587152       2.34088111       0.91799462       2.43393993
C        3.79969766       3.41731446       7.26503278       0.05430573      -0.84972351      -0.14294974       1.53267348      -2.63626814      -0.67053080
C        6.17690642       5.28441677       1.23280275       0.01650094      -0.40682712       0.30869124      -0.80291402       1.66399527       1.24153090
C       -0.03561626       4.22303638       4.95187182      -1.80352786      -0.45892207       1.29234612       0.49720132       1.57095516      -0.49128604
C        5.88410756       1.03567886       5.27928911       0.08213391      -2.62062100      -2.25250327      -0.52344012       1.81420648       0.56353545
36
Lattice="6.163743 0.0 0.0 0.0 6.163743 0.0 0.0 0.0 8.218324" Properties=species:S:1:pos:R:3:momenta:R:3:forces:R:3 virial="7.324435467915814 -1.3691905013204728 1.5736151506864136 -1.3691905013204728 -10.260009212337337 7.134474633720599 1.5736151506864136 7.134474633720599 -2.2939334134585585" config_type=Amorphous_Bulk pbc="T T T"
C        0.66655566       1.35829626       4.35140580       0.43631570       2.73669768      -0.91547103       0.31896853      -1.30729985      -2.08326864
C        1.03792918       5.16508597       0.26932537       1.26657478       3.46029400       1.57165618       3.95261002      -1.77175725      -0.82132715
C        2.39440073       3.52311685       7.52929030      -0.22521078       0.01205038      -0.07363077       1.24931145      -2.15194130      -1.32791340
C        4.48057017       2.17300307       7.10393057       0.09788714      -1.02973363       0.31898654      -1.06429398       0.26707023      -1.67899156
C        5.69217801       0.45034105       1.28329596       1.05843066       0.12656714      -1.41711304      -2.55141139      -0.23270318       1.99259937
C        4.52737875       0.36749267       1.99046005       1.91003245      -0.12885889      -0.41823974      -0.22091293      -1.64315414       1.34235847
C        0.93058321       4.65863788       6.06973814       0.46508876      -2.42383718      -0.53064601      -0.60645026      -2.92450523      -1.37663603
C        3.60194491       7.00039713       7.26656209       0.65635286      -0.96828735       0.36838194      -0.54629499      -0.15553215      -1.49320805
C        3.14219674       2.92852051       2.16322586       0.27326842      -1.02001897      -0.79917183       1.67239201      -1.28534710       3.29046440
C        1.60393260       0.25969862       3.95240529      -2.25669132      -0.79930935      -0.85211213       0.63976353      -0.14621261       1.13128567
C        4.00270551       2.09734162       4.43315808      -2.09413758      -1.19915249      -0.59479651      -0.70175898       0.33262235       1.02305746
C        1.97026775       3.32889983       1.68458574      -0.90539560       0.17882912       0.66947831      -0.60858369      -0.47861117      -3.30028033
C        3.97716519       5.13843052       4.05479002      -1.10013193       0.51791209      -0.76771508      -3.09710288       0.33430743       0.25962225
C        1.08587021       5.85313705       7.02529934       0.99141337       1.67358926      -0.35546075      -1.55981302      -0.01090470       1.07126749
C        4.30967564       4.55551834       6.57097997       1.11088623       0.81110265       0.56963035       0.64863682       3.18241477      -0.33802360
C        2.04271932       4.18643668       0.43227703       1.74813319       1.66822689      -0.30197365      -3.75934124       1.32373631       2.83288193
C        5.92928021       0.44294800       6.88119915      -1.51237668      -0.33429808      -0.24766279       2.66455221       1.34674168      -2.21518445
C        4.70774837       4.63451156       5.16383540      -1.51501419       1.49996359      -0.07385682       1.33807731      -0.36459500      -0.93788999
C        4.58440579       5.98048021       6.95161938       0.23755272       0.48706066       0.98276109      -2.10836506      -0.47670022       1.94642949
C        4.65101747       1.90365633       5.57633239      -0.11224978       0.48674898      -0.14912415       3.74876833       0.18175231      -0.92946577
C        6.41680133       3.81714750       3.58785698       2.16353133      -0.99538166      -1.18985863       0.48510304      -2.28005147       1.35633910
C        0.90140713       2.29071720       1.82642010      -2.13863219      -1.43357709       0.80590314      -1.85897279       1.40402007       1.65649879
C        2.47967620      -0.63966806       3.93708094      -1.60395546      -0.53946055       3.46301629       1.73363137       1.93646312       1.15846121
C        6.01967887       4.73794150       2.60776478       1.15129778      -0.37603196      -0.44851430      -2.48601413       1.22267175      -1.03661203
C        3.53997559       2.34459128       3.28889096      -0.22268937      -2.35586517      -0.91436244      -0.17536761       1.00602424      -1.96962452
C        6.12856897       1.84458768       7.62841953      -0.48610198       1.38558441       1.37757576      -2.48865938      -0.92689025       1.19171202
C        1.50409226       3.46144721       6.39705926      -1.93947747       0.04646708       0.76326502       0.68232846       0.66314220       0.48324096
C       -0.05586667       1.78126786       0.94132011       0.73753656      -0.89277746       1.08345391       2.97288060      -0.24727029      -2.10184646
C        1.38409755       2.13141640       7.09167135       1.17740497       2.87983648      -1.57814498       0.53489161       1.85355616      -0.59063774
C        2.14184923       7.03250201       6.94097409       0.84894347       0.22477772       0.22457386       1.72605419      -0.17143248       1.53658652
C        0.43199251       2.38982459       3.30059513       1.49420641      -0.84360073      -1.17544703       1.80474567       0.60682952       0.58203399
C        4.69451902       5.40956481       2.90736295      -0.16080889      -2.40588515      -1.39575536       1.42707443       0.70819318      -1.40212190
C        3.78594604       3.50336017       7.27165416       0.92890990       1.98934251       1.51924339       1.51565981      -2.17299938      -0.00986599
C        6.41716403       5.34867181       1.34415837      -0.47846329       0.31756666       1.22794054      -1.11654317       2.28380322       0.66015613
C       -0.02436905       4.36856963       4.94012335      -0.92691231      -1.44112816       0.31637945      -1.50139248       1.05004525       0.81752938
C        6.00703155       1.28322826       5.49228203      -1.07551790      -1.31541341      -1.06318870      -2.66417170      -0.95548546      -0.71962601
36