64
Lattice="7.605088 0.0 0.0 0.0 7.605088 0.0 0.0 0.0 7.605088" Properties=species:S:1:pos:R:3:momenta:R:3:energies:R:1:forces:R:3 virial="17.166598152555693 5.991147713396794 -33.39090528862955 5.991147713396794 41.228166781458995 3.125136537892319 -33.39090528862955 3.125136537892319 -19.953289831841346" config_type=Amorphous_Bulk energy=-410.1350629946988 free_energy=-410.1350629946988 stress="-0.1294664702630511 -0.06332944924931178 0.1070763394600158 -0.06332944924931178 -0.3621144685712188 0.012749660799585056 0.1070763394600158 0.012749660799585056 -0.1772833377258748" pbc="T T T"
C        6.01781000       0.87688000       7.21954000      -0.61140892       0.20969196      -0.45166744      -6.13593673       2.91537361      -4.33434625      -1.84764433
C        6.44267000       0.20465000       0.91457000       0.72484169      -0.49379485       0.07477644      -7.50283530      -1.99016575       1.89427578      -3.67585546
C        5.70583000       5.02767000       6.86702000       0.38820023       0.18322704       0.64081868      -8.00790464       1.77928328      -1.24023585      -0.75063344
C        0.83240000       2.30303000       7.13280000      -0.51413559       0.25860385       0.24346730      -6.17730264       1.22301345      -1.31055249       1.83285065
C        2.12848000       5.78305000       2.01256000      -0.07316507       0.66905585      -0.04564795      -5.55768180      -2.37655405      -3.95052629      -0.23570446
C        0.07369000       3.37940000       1.82439000      -0.28763403      -0.40226698       0.35598728      -6.26725855      -0.79437996      -0.62121847       0.13028042
C        5.10089000       1.14323000       4.09875000       0.19088465      -0.10682985      -0.00263732      -4.99427347      -0.08799261       5.71256895      -1.10969415
C        7.33984000       0.33984000       3.65872000      -0.55004766      -0.00851285       0.18186437      -5.34245174       3.27927675       2.48531964       1.46349758
C        5.38138000       7.51880000       4.96896000      -0.87007981       0.04613970       0.80305635      -4.82931992      -1.37495611      -2.84463631      10.76950226
C        2.42945000       7.13928000       2.10034000      -0.84732094       0.04518845       0.32416657      -6.46006907      -0.89040100      -2.79238173      -1.53206691
C        7.42916000       4.19476000       3.94711000       0.70706423       0.60461845      -0.56347741      -6.90266742      -1.80538596      -0.99262929      -0.12859944
C        3.63769000       5.82465000       4.82493000       0.72339109       0.59515953      -0.41005946      -6.57882922      -0.32570480      -1.86617170      -3.92288723
C        4.81688000       5.99917000       0.10615000       0.41373221      -0.64386059       0.34747543      -7.05026402       0.47421692      -2.80498042      -3.52776407
C        1.22033000       4.63880000       0.19096000       0.34978353      -0.77558163      -0.48395584      -5.48054000      -1.41406834       2.01708004       1.65434354
C        2.37686000       1.69691000       5.39405000       0.19182854       0.58648858      -0.57090846      -5.66752604       1.04271531      -0.32068180      -2.87199028
C        1.01796000       2.56951000       2.76054000      -0.75348501      -0.20260249      -0.19824997      -6.22902763      -2.09774184      -0.08240952      -1.81476826
C        2.94130000       2.97920000       5.44366000      -0.22696708       0.08606139      -0.62651220      -5.80628673       1.06531086       1.05004148      -1.38298120
C        3.13063000       0.61190000       5.93689000       0.61216888      -0.21095473      -0.40782508      -5.92703792       9.68206462      23.30040924     -20.11130570
C        2.39912000       5.19418000       4.62844000      -0.39806039       0.58631239      -0.18692033      -6.68771971      -4.48218900      -1.51527720      -2.16677529
C        5.41659000       6.76654000       1.15741000      -0.35578897       0.34288070      -0.50682359      -6.60394937       3.54066195       3.62079038       2.63341419
C        1.25171000       5.67705000       5.19710000       0.37756759       0.21444055       1.10715933      -6.44437427       1.81764696       4.25502953       1.46881862
C        2.72070000       0.48944000       7.25728000      -0.28122954      -0.73583938       0.03244809      -4.66178010      -3.20189785     -17.19317871     -10.64990389
C        6.73058000       1.30532000       1.89236000      -0.82143439      -1.25472296      -0.09239203      -5.41953141      -0.22103120      -1.74066123       2.17477745
C        6.02875000       2.18998000       4.61201000       0.10706967      -0.37310955       0.02564875      -7.38708709      -0.66849182       3.15553517      -1.63678034
C        5.57042000       2.79864000       5.84022000       0.73509570       0.47153139      -0.41346188      -6.20254981      -0.40078190      -0.45626306       0.52135133
C        4.97148000       4.18100000       3.44544000       1.20507935      -0.51119459      -0.27053448      -6.47959206       3.47431415      -2.05080265       1.63382264
C        7.54511000       5.16290000       5.04417000       0.09326931       0.16323558      -0.13276094      -6.02930388       2.24919719      -3.29411528      -5.09651917
C        3.56889000       3.59246000       6.76651000       0.16063825       1.07109851       0.04513185      -6.91806340       0.10987145      -0.21055202      -0.59173363
C        7.56382000       6.83669000       6.71287000      -0.02664492       0.04222117      -0.08493527      -6.88291724      -1.12838061       1.21071618       1.91077355
C        4.00685000       7.11673000       5.35902000      -0.27919228       0.02554915       2.07264288      -6.69298123       2.20830810       2.21336085      -1.38362656
C        1.26194000       0.35602000       1.48801000       0.15711107       0.39650735      -0.35298452      -7.28182918       2.54030079       3.89519527      -0.63894707
C        0.07048000       4.75512000       2.41586000       0.23823344      -0.53259683       0.59758693      -4.79242366      -2.08934379       0.05337087       0.65099149
C        2.98214000       4.45988000       1.82506000       0.27103403       0.33212679       0.55519104      -7.10245268       0.44995529       0.19682733       1.22968021
C        2.33211000       3.77267000       4.30381000       0.07324648       0.00486877       0.09279565      -6.97295329       2.95414765       2.03794426       1.46529346
C        3.67347000       7.51899000       2.61663000      -0.39061937       0.27175221      -0.81043577      -6.33418917       2.00462615       4.30047955       3.91631715
C        0.22957000       3.51671000       0.27889000       0.13477121       0.04970866       0.54015331      -7.46677715       1.70303461       0.12335801      -3.15552069
C        3.37811000       5.78759000       7.53927000       0.24135168       0.33338060       0.14214095      -6.45872564      -2.89057702      -2.91985864       1.14560616
C        4.60339000       4.79645000       4.61948000      -0.03539788       0.02305661      -0.75608232      -6.48838200      -0.26084064       1.37142371       7.21639899
C        6.81855000       5.63462000       6.14178000      -1.18308340      -0.72679536      -0.57429534      -5.84220127      -2.28303687       3.73863491       3.42371843
C        0.90766000       3.14539000       4.24165000       0.16869566       0.91639955       0.01690215      -6.00951439       0.10755457      -0.85623741       0.46965151
C        0.87298000       2.03145000       5.47436000      -0.57194250      -0.71858083       0.66062360      -7.09628219      -2.70093628      -0.36293762       0.74337401
C        0.44785000       1.10430000       2.51376000       0.00873045       0.09594965       0.01070925      -7.06860752       1.81351823      -0.53413015       0.55916376
C        1.31965000       6.57709000       6.24733000      -0.52746778      -0.48184055      -0.43315332      -6.15901516      -2.09966366      -0.32064181       0.58259669
C        0.77847000       5.62012000       1.35873000      -0.55219723      -0.77747847      -0.10444356      -6.94826025       0.69723302       0.68440445      -1.09502241
C        3.20735000       1.97174000       1.01210000      -0.35860904      -0.28640303      -0.26960694      -6.11005491       7.57326375      15.73696638      15.46637092
C        3.31175000       2.14767000       2.46073000       0.04248734      -0.03821475       0.39130944      -6.02086633       0.20130998       4.28195004      -5.30389273
C        4.45590000       4.27648000       2.15935000      -0.70421597       0.06290656       0.07044908      -6.22831479      -0.93873702       1.59097417      -5.27815917
C        4.88269000       4.12489000       5.92707000       0.22911942      -0.90631825       0.26262027      -7.34487613       0.97533379       1.61028394      -0.27581597
C        6.15075000       3.30718000       3.58175000       0.86613273       0.06472647       0.44700890      -7.27608485       1.72048438      -1.51913721      -0.16025549
C        7.27562000       1.23008000       4.97338000      -0.55813070      -0.67591727       0.51249613      -6.84272703       0.55465010       0.23982673       0.06622230
C        3.92849000       1.18852000       3.24246000      -0.48976947       0.21963612      -0.41011315      -6.08840073      -4.75927243      -2.31774784       1.82157020
C        4.28131000       2.65685000       0.20992000       0.54518066       0.07441583       0.04533651      -7.34262702      -0.61255909      -1.89278728       1.72733889
C        6.32284000       4.06705000       0.22058000      -0.06339124      -1.18427273      -0.75449701      -5.68644368      -2.58450682      -1.93101735       1.52683824
C        6.58522000       0.29848000       5.99038000       0.23047193       0.10525436       0.43880307      -6.88400127       0.80104852      -2.22118345       1.94420486
C        0.21424000       7.02922000       0.75325000       0.56074806      -0.35487507      -0.41972749      -6.66414997      -1.08669759      -1.28726192      -0.90209166
C        5.90759000       7.44550000       3.58799000       0.00037046       1.21990627       1.24232826      -4.95774262       3.51665614      -3.77448790      -7.98268795
C        1.87709000       1.43340000       0.43631000      -0.26651603      -0.17028519      -0.37224456      -7.26613613      -1.53033180      -1.27827827      -1.75167351
C        2.75006000       4.48210000       0.17805000       0.74306622       1.37816808      -0.60490440      -7.01880006       1.34298129      -1.37198909       0.18054010
C        6.32027000       2.71297000       2.10710000       0.26742262       0.69929497       0.42182852      -6.76688787      -1.61069122       1.80368663      -1.35548124
C        5.28693000       1.99604000       6.96142000      -0.14189884      -0.00506567      -0.19583020      -6.22439639      -2.67424034       3.45899986       0.81363731
C        5.28149000       3.43211000       1.17970000       0.40230169      -0.13240458      -0.81952847      -7.35015838      -0.31736453      -0.13116288      -0.98067432
C        2.44785000       3.27551000       2.75233000       0.33444359       0.53526213       0.30737705      -6.38814290       1.26014397       0.42458129       3.59030750
C        4.98050000       6.94507000       2.49717000      -0.83533788      -0.05974368      -0.97174005      -6.21592822      -3.14033939      -4.82777201      -1.43624597
C        2.42126000       6.72387000       7.14731000       1.07963827      -0.21476246       0.28805336      -6.10964776     -10.23823559     -19.29578356      20.02044757
64
Lattice="7.605088 0.0 0.0 0.0 7.605088 0.0 0.0 0.0 7.605088" Properties=species:S:1:pos:R:3:momenta:R:3:energies:R:1:forces:R:3 virial="17.166598152555693 5.991147713396794 -33.39090528862955 5.991147713396794 41.228166781458995 3.125136537892319 -33.39090528862955 3.125136537892319 -19.953289831841346" config_type=Amorphous_Bulk energy=-418.35166763411974 free_energy=-418.35166763411974 stress="0.031357020585146465 -0.05957450450223911 0.08584877269187066 -0.05957450450223911 -0.1432164136596097 -0.010068325718899013 0.08584877269187066 -0.010068325718899013 0.020366813015286648" pbc="T T T"
C        6.00802276       0.91244520       7.19635159      -1.23524691       0.24725362      -1.05745533      -6.60883406       2.41243514      -1.55457483      -2.08180571
C        6.31606724       0.28135534       0.92734059      -1.01459185       0.03280293       0.07314009      -7.66690967      -1.46532453      -0.17056823       0.35973797
C        5.75315178       4.97721053       6.90309808       0.03753542       0.89529184       0.29326446      -8.11811062       0.71411833       1.81452667       0.54429570
C        0.98280573       2.19093481       7.03576158      -1.24912873       0.27879301       0.71879702      -6.17786034      -0.00407375       1.15723890       3.40775357
C        1.95087881       5.62092371       2.01460062       0.35708757      -1.28638249       1.67791323      -5.77542373       4.44594854       3.85401533       2.55792137
C       -0.07437845       3.31053362       1.73631564      -0.18659001       0.54432925       1.05847104      -6.31847862       0.39063392       1.69380605       2.78261982
C        5.12399355       1.37646334       4.27536366       1.37883186       0.06823504      -0.45136232      -5.37155253      -1.54486301      -6.67205916      -2.45108835
C        7.60607219       0.38565741       3.78505938       0.94927235      -0.54135180       1.92195192      -5.31504479      -1.37677694       0.47432403       1.22317059
C        5.55158521       7.59195840       4.72718569      -0.09615493      -0.98962743      -0.38160057      -6.36020546       0.41138789       0.61443920       7.29958181
C        2.38372572       7.05761353       2.25351759       0.48496524      -1.23780665       1.62511657      -6.45936452       1.10623881      -4.07654553       0.43702318
C        7.40993402       4.40768830       3.88842434       0.91150075       1.13706226      -0.77624176      -6.67650602      -1.14867611      -2.57021830      -1.57166817
C        3.69848370       5.93133882       4.54117425       0.54102619       0.40132025      -0.24108014      -6.66142583      -2.32255799      -4.38651490       3.40491733
C        4.77078377       5.81387610       0.21500062       0.98571602      -0.27497697      -0.75171916      -6.94510531      -0.27802601      -0.99665207      -1.22106934
C        1.04438079       4.59157405       0.30395316      -0.24446520      -0.48877573      -1.28749942      -5.51268075       1.84130308       1.48883653       0.31669894
C        2.61275084       1.71567843       5.14265304      -0.64111956       0.69114020      -0.61998867      -5.72934953      -2.38256411      -1.31900265       1.71231673
C        0.92430674       2.59773668       2.73686519      -0.35098674       0.99399857       0.00131267      -6.06787320       0.60535063       2.04355795      -0.88695336
C        3.06723175       3.09993549       5.37502301      -0.67810740       0.24034157       0.64899660      -5.78645500      -1.02317581      -0.51846251      -1.16879236
C        3.25124211       0.62069853       5.83141505       0.78833975       1.00304397      -1.18530426      -6.83393036       1.24042845       0.10764659      -2.05608307
C        2.35764669       5.34049620       4.44307786      -0.76819825      -0.14539785      -0.94611953      -6.96277890       1.10632931       1.66660521       0.77493277
C        5.26272234       6.81984371       1.22888129       2.02303031      -0.97511561       0.52634931      -6.74908901       2.79576133      -0.99306876       1.37919043
C        1.25929639       6.00581854       5.00061353      -0.76628532      -0.68430331      -0.33023436      -6.24041584      -2.45805105       0.55292923      -0.45206492
C        2.86006821       0.36714963       7.12497683      -0.27087739       1.08145130      -0.64094760      -5.77904979       1.43787453      -2.20258146       2.49715726
C        6.68858796       1.31308254       2.02713985      -0.57884830      -0.66724783      -0.18215315      -5.73264905      -0.95997980      -2.32296805      -2.61988465
C        6.05517480       2.38731026       4.61421273      -0.74166784       1.01353093       1.07564628      -7.16146810      -0.17450154       2.33485460      -0.26005627
C        5.28925076       2.85097585       5.79332302       0.72035162       0.78693412       0.12804491      -6.07363491       3.80987546      -0.89894519      -0.29453925
C        5.11133344       4.33501566       3.33573651      -0.68057960      -0.90898842       1.89690765      -6.48008673      -0.27551493       0.05119383       4.30539879
C        7.25187625       5.62982021       4.66460918      -3.28120907       1.60058325      -3.10760333      -7.30656526       1.07707409      -1.10470133       1.07345563
C        3.55868413       3.61963765       6.75328206      -0.63422813       0.54612111       0.84393882      -6.39319543      -1.67125297      -1.28926871       0.71787093
C        7.62685224       6.76422540       6.84159864       0.40252039      -0.19969981      -1.00904914      -6.84313726       0.42782188       4.76311279       4.63238173
C        4.12528718       7.14503884       5.18923620       2.66669050      -0.11529530       0.12918805      -6.57602039       2.18411634       4.08819581      -2.83054683
C        1.37166684       0.36001260       1.50404959       0.11439082      -0.41291781       0.30325420      -7.31436093      -0.80326216       2.00015968       0.32101915
C       -0.15420106       4.73713818       2.35688564       2.58562828       0.86672774       0.09037799      -5.03250561      -2.09942656      -3.90759640      -0.73089007
C        2.96373248       4.41005342       1.83259916       0.96196726       0.24132906       0.89739826      -7.20803195      -1.65226010       1.14202672       1.69092860
C        2.31639302       3.90552616       4.35041671      -0.87102700      -0.10785618       0.83014595      -7.18479840       0.55355575      -0.08905255      -1.00179687
C        3.68918787       7.39339460       3.05673578       1.44966709      -1.12997354       0.77475571      -6.62257413      -0.20214775       3.04693307      -5.32834734
C        0.22695949       3.42092348       0.24031375       0.40192336      -0.86690052       0.03203102      -7.30721672      -2.13165258      -3.04702016      -2.16931116
C        3.28190274       5.58999969       7.59123789      -0.82761977       0.21197746      -0.42424732      -6.44652447       1.33414263       4.51304508      -0.35911532
C        4.64100596       4.90778042       4.57372268      -0.94843671      -0.38607945      -0.34027080      -6.74651630      -1.54124690       0.71818931       1.17127845
C        6.85144198       5.76288349       6.22033347       0.02117954       1.05187730      -0.41466712      -5.74360348      -2.39087863      -4.93098948      -3.01055349
C        0.86839609       3.30624766       4.25111660      -1.64026991      -0.04349533      -0.19662641      -5.84706759       1.63131157      -0.60235242       0.99116404
C        0.93010568       2.03845616       5.46240865      -0.69281917      -0.71423577      -0.91924387      -6.80707756       0.69340069       1.26408942      -0.47180379
C        0.49008713       1.15823520       2.54153878      -0.47061191      -1.11213397      -1.44478185      -7.38618515       0.37050705      -2.55573231       0.26846547
C        1.31578831       6.50127963       6.32264316       0.27417225       0.12072856      -1.16707397      -6.40616054      -1.03352747      -1.01191942       0.33549764
C        0.59760710       5.61351239       1.47448558       0.66240437       0.91658662       0.34273913      -7.12245374       1.43928129      -2.16070374      -3.51964567
C        3.30679269       1.85706351       1.02716437       0.59914896      -0.98080862      -0.69231154      -6.52110282      -4.35282978      -0.54663359       1.68132758
C        3.23645929       2.14552078       2.45226228       0.46063735       0.01999839      -0.68288249      -6.62068029       4.39039060      -2.57655386       2.35614938
C        4.47088873       4.49062479       2.02388414      -1.11585043       0.14741082       0.30297446      -6.19279942      -0.65751380      -2.09347677      -1.92894828
C        4.83154175       4.25552528       5.95665264      -0.17008640      -0.06984865       0.85159891      -7.17904563       1.64739055       0.09426017      -2.91570132
C        6.18778762       3.38652132       3.51851247       0.12252571      -0.35897142       0.19326827      -6.98194027       1.61875562      -0.27884798      -0.06990704
C        7.30528026       1.26723911       5.00874505      -0.94070082       1.60000553      -0.85141104      -6.84125283       1.36514512       1.30249824      -0.90296798
C        3.86816256       1.20134420       3.46234759       1.47594179      -0.50318830       0.71083592      -6.65591757      -0.83034694       0.35099479      -2.35828596
C        4.21623648       2.56576106       0.26071000       0.18657502      -0.55381807      -0.87521765      -7.22700836       1.66240900       3.71415965      -0.04324939
C        6.24624115       3.85269537       0.15474909       0.72744250       0.35890570       0.53628369      -5.55706735      -0.27030217       1.27601881      -0.77387210
C        6.71730396       0.29337139       6.07744727      -0.67849302      -0.88081362       0.22446616      -6.44147336      -1.50350900      -0.14867534       0.42714727
C        0.15357045       6.96742359       0.89331280       0.01727528       0.55402216       0.08206301      -6.60987480      -0.71470392       2.02542342      -2.58470454
C        6.44870145       6.64557195       3.85945740       0.77222475      -0.55894999       3.71524991      -6.19474360      -3.31221049       4.17847570      -7.22433962
C        2.06862386       1.25531732       0.36374462      -0.08511173      -0.09857439       0.66358559      -7.66057394      -1.01528777       1.05336466      -0.13491199
C        2.56434896       4.33378917       0.22248034      -0.47152427       0.08538823       0.29913188      -6.56618106       2.21303815       0.10347369       1.71483876
C        6.15955145       2.70298595       2.07363920       0.04749012       0.67302252      -0.53388545      -6.64034544       1.45835363       0.61750818       1.36262253
C        5.11977715       1.98036514       6.89551951      -0.33836426      -0.09982094      -0.09920813      -6.51898756      -1.68133623      -0.43343932       2.29646494
C        5.14496866       3.39953456       1.17314004      -0.59766773      -0.57103840      -1.62088538      -7.23083857       2.89648677      -0.60564688      -2.36285900
C        2.55325395       3.32124085       2.86510342      -1.34751990      -0.72164825      -0.83062858      -6.42296289      -4.32015172       1.16019078      -2.14473210
C        5.05276332       6.62187051       2.66624235       0.76835344      -0.88774654       1.07455428      -5.76144206       1.13848664       1.14513911       5.16651925
C        2.49269397       6.65154429       7.11834719       0.71857240       1.16357568      -0.48205266      -6.66915223      -2.82142025      -0.34646132      -1.27935230
64
Lattice="7.605088 0.0 0.0 0.0 7.605088 0.0 0.0 0.0 7.605088" Properties=species:S:1:pos:R:3:momenta:R:3:energies:R:1:forces:R:3 virial="17.166598152555693 5.991147713396794 -33.39090528862955 5.991147713396794 41.228166781458995 3.125136537892319 -33.39090528862955 3.125136537892319 -19.953289831841346" config_type=Amorphous_Bulk energy=-420.4751636063463 free_energy=-420.4751636063463 stress="0.016750030048638533 -0.06352302322383366 0.102469254184625 -0.06352302322383366 -0.11622428454328884 -0.04295656784014399 0.102469254184625 -0.04295656784014399 0.0009460171712897899" pbc="T T T"
C        6.12010353       0.87328628       7.19327506       1.27091485       0.25595672       0.77818406      -6.47566262      -0.80200269      -1.58167824       0.86356623
C        6.42261287       0.20745880       0.95482225       0.44217044       0.43978438       0.72833851      -7.81737043      -0.60031152      -0.10212460      -1.49009300
C        5.74058553       5.03883413       6.85384540      -1.40738731       0.34033429       0.38764572      -8.02516696      -0.28756537      -3.06162515      -1.46346541
C        1.06198702       2.39238515       7.18217316      -2.10279372       0.33224382       0.75209928      -6.12057639      -1.82341912      -3.56207055      -2.76415960
C        1.99510232       5.66797173       2.04815695       0.87756226       0.92212205       0.93327841      -5.89019252       1.18295830      -2.70351242       0.65319950
C       -0.05124122       3.30575768       1.75814176      -0.73208885       0.15744027       1.99727009      -6.22752556       0.46114967       0.52062271       1.80826111
C        5.11988447       1.23415549       4.18240093      -0.56896643       0.51916192       0.63924610      -5.53957703      -0.49324040      -4.91132762       2.43013514
C        7.60883155       0.32192125       3.88326500       0.63006376       0.19655852      -0.37099584      -5.25773336      -1.30875661       0.76679312      -3.45585503
C        5.53266695       7.44316855       4.92512175      -0.44366743       0.29611070      -0.08658839      -6.48357328      -1.53917033       3.51926252      -0.87683452
C        2.46114482       6.96618522       2.11334418      -0.97891519       0.07453027      -1.79547573      -6.60988264       1.59903197       2.59249321       0.14382416
C        7.29661697       4.27545175       3.89354358       0.92351073      -0.69969919       2.62502368      -6.90821944       0.63948826       2.27234053      -1.37995037
C        3.62471355       5.86585556       4.51591530       1.22507756       1.14250850      -0.95650614      -6.92701929      -1.67777176       1.16127903       1.83958142
C        4.83183068       5.94100738       0.05337706       0.79218312       0.27261455      -0.61786610      -7.07640266       0.20271624      -0.74524665       2.52029614
C        1.12357502       4.63359604       0.31284866      -0.49637568       0.00481076       0.41692863      -5.53594705       0.66960235       0.62576229       0.12243992
C        2.43041790       1.88614391       5.29521749      -1.08124631      -0.68689968      -0.25691076      -5.81474213      -2.25564088      -2.47271425      -1.01463980
C        0.92472700       2.60760234       2.75632485      -0.46405992      -1.48829704       0.42253337      -6.34071564       0.22883564       0.59319878      -1.02889576
C        2.96349037       3.20619887       5.41964488       0.81754141      -0.94683211      -0.56519093      -5.72202259       0.96940079      -0.00117326      -0.34229537
C        3.11698249       0.69611552       5.78305502       1.43795093      -1.90126386       0.57681433      -6.56169068       0.85016616       0.22010169       0.38020263
C        2.22980216       5.42032972       4.31888689       0.27424817      -1.30142632       0.58402115      -6.70745836       5.55907309       1.30641545      -0.21487533
C        5.43000809       6.70507142       1.21487257      -0.46680242      -0.84865033       0.12506671      -6.62027793       1.85830073       1.33678557       0.16554835
C        1.16691327       6.10633743       4.89178087       0.36034450      -0.00182642       1.42686179      -6.23778442      -1.80548056      -0.71379456       1.89606414
C        2.87729597       0.48980385       7.17979679       0.94626669       0.69947776      -0.28924101      -5.66346327       0.81766155      -1.50520232      -1.87957664
C        6.78121553       1.18276641       2.01480575       0.37372279      -0.14012503       1.36883760      -5.79526920      -1.35605465       0.58505818       0.19802798
C        5.95087393       2.33632538       4.68032113      -2.25234223      -1.51276529      -0.80150876      -7.32175682       0.76862251      -0.34975824      -2.56155799
C        5.34761032       2.84626543       5.87610709       1.31181412       0.52451551      -1.31216237      -6.20592720       3.86528470      -3.32719262      -2.37519820
C        5.00796146       4.16327248       3.46822551       0.93503001       0.76009392      -0.10073198      -6.53649136       0.68315825      -0.20795363      -0.72420613
C        7.19944919       5.59487118       4.64581240      -0.39240336       1.87942636       0.03803667      -7.17314753       0.28665373      -0.33825489      -1.16822025
C        3.56789450       3.69327220       6.81865483      -0.36395806       0.66513609       1.89450371      -6.46116061      -0.87584029      -1.82819676      -0.08066976
C        7.61318617       6.68948146       6.88504613      -1.52346033      -1.12404155      -1.29856543      -6.68874396       0.54755278       2.57603244      -0.14533519
C        4.01954757       7.17670155       5.05207431      -0.38140106      -2.05676632       0.08154900      -6.41211373       0.54191932       2.47647568      -0.14366217
C        1.39001662       0.40677258       1.50612113      -0.00358034       0.56455164       0.10818762      -7.20730608       1.41282793      -1.50866070      -0.79132402
C       -0.24582854       4.70097195       2.31666182       0.00760463      -0.07115194      -0.08449446      -5.03255106       0.64781920      -0.91974221       0.28444336
C        2.95426697       4.42813654       1.86803051       1.90346802       0.85582978       0.17753382      -7.10798047      -0.51948383       0.21668589       0.68979236
C        2.28945429       3.98347175       4.29131069       0.57795309      -0.73780029       0.00905947      -6.93322293      -3.03937074      -0.62571432       0.49787023
C        3.80072575       7.34017967       2.74514053      -1.08835225      -0.04225369      -0.19435866      -6.89319050      -3.21655311       2.98480353       1.95455600