64
Lattice="7.605088 0.0 0.0 0.0 7.605088 0.0 0.0 0.0 7.605088" Properties=species:S:1:pos:R:3:momenta:R:3:forces:R:3 virial="17.166598152555693 5.991147713396794 -33.39090528862955 5.991147713396794 41.228166781458995 3.125136537892319 -33.39090528862955 3.125136537892319 -19.953289831841346" config_type=Amorphous_Bulk pbc="T T T"
C        6.01781000       0.87688000       7.21954000      -0.40774016      -0.45826727      -0.59231136       0.66910446       0.23920992      -0.59696251
C        6.44267000       0.20465000       0.91457000       0.38065815      -0.33452692       0.70612027      -0.04312325       0.31702006       0.00541848
C        5.70583000       5.02767000       6.86702000       0.36016491       0.10214122       0.72896277       0.26541102       0.37511137       0.53631818
C        0.83240000       2.30303000       7.13280000       0.59133670       0.09723402       0.25235012      -0.40368831      -0.42363960       0.09187508
C        2.12848000       5.78305000       2.01256000       0.15932349      -1.07938373       0.84317834       0.21092400       1.02172148      -0.00697601
C        0.07369000       3.37940000       1.82439000       0.56153860       0.15727386      -0.88836435       0.52534270       0.52103060       0.91544008
C        5.10089000       1.14323000       4.09875000       1.58904210       0.06593458       0.74295987      -0.10279533      -0.08071056       0.69347799
C        7.33984000       0.33984000       3.65872000       0.23440553       0.12345465      -0.13348990       0.87873024       1.06661344       0.10504708
C        5.38138000       7.51880000       4.96896000       0.42185277       0.26871005      -0.29859905      -1.18091893       0.44209450       0.70136076
C        2.42945000       7.13928000       2.10034000      -0.37984685      -0.05730395       0.06096362      -0.19212669      -2.32139659      -0.72253501
C        7.42916000       4.19476000       3.94711000       0.10243332       0.50711985      -0.87640538      -0.53102344       0.06598410      -0.53397584
C        3.63769000       5.82465000       4.82493000      -0.62772646      -0.20306686      -0.46042896      -1.34960008       0.88574457      -0.19934627
C        4.81688000       5.99917000       0.10615000      -0.48105651      -0.00899785       1.08932082      -0.99494511      -0.31268644      -0.05946845
C        1.22033000       4.63880000       0.19096000      -0.01236188      -0.01728270       0.46791609      -0.62409198       0.28590876       0.60446143
C        2.37686000       1.69691000       5.39405000      -0.39767553       0.31691377       0.97425964       0.23938632       0.54550165      -1.03556454
C        1.01796000       2.56951000       2.76054000       0.32570440       0.30952357       0.22911857      -0.72399008       0.63000834       0.79531443
C        2.94130000       2.97920000       5.44366000       0.22704817      -0.62574098       0.29925441       0.04602003       0.34123349       0.33990556
C        3.13063000       0.61190000       5.93689000      -0.29338744       0.37105116      -0.12410125       0.91988033      -0.58573061      -1.16554713
C        2.39912000       5.19418000       4.62844000      -0.10731018      -0.27670182      -0.71547170       0.77535713       1.17146063       0.31478894
C        5.41659000       6.76654000       1.15741000      -0.56102262       0.46657001       0.77834377      -1.25879598      -0.00764269       0.61539614
C        1.25171000       5.67705000       5.19710000      -0.11568908       0.02167120      -0.27701058      -0.31225216       1.09011066       0.18607146
C        2.72070000       0.48944000       7.25728000       0.55516673       0.37006476       0.99433599       0.16587389       0.48128760       0.21348733
C        6.73058000       1.30532000       1.89236000       1.17290957       0.07035083       0.10169287      -0.06437502       0.60539722       0.21786907
C        6.02875000       2.18998000       4.61201000       0.35984931       0.14389743      -0.19498262       0.05340926       1.12258720      -0.46642697
C        5.57042000       2.79864000       5.84022000       0.25452679       0.23637537      -0.39040446      -0.60212880      -0.18253458       0.68735749
C        4.97148000       4.18100000       3.44544000      -0.10776115      -0.40142362       0.40493670      -0.38393179       0.05097485       0.72546273
C        7.54511000       5.16290000       5.04417000       0.02782039       0.60145426       0.61679143      -1.17595077       0.42599002       0.88727784
C        3.56889000       3.59246000       6.76651000      -0.57893962       0.36995622      -0.12262638       0.40524864      -0.42539549      -0.88458228
C        7.56382000       6.83669000       6.71287000       0.69241887      -1.55693190      -0.94205098       0.86785662      -0.99254304       0.23155212
C        4.00685000       7.11673000       5.35902000      -0.39745098      -0.22559967       0.20624355      -0.13112184      -0.74628776      -0.59360832
C        1.26194000       0.35602000       1.48801000       0.30523326      -0.05631156       0.85217526       0.79192328       0.94512039      -0.10280026
C        0.07048000       4.75512000       2.41586000       0.30989848       0.91730888      -0.58061701      -0.65930498      -1.31851876      -0.74023825
C        2.98214000       4.45988000       1.82506000      -0.14026142       0.90867492      -0.26074345      -0.39654756       0.64325029       1.16767871
C        2.33211000       3.77267000       4.30381000       0.39522893       0.71520328       0.10798883      -0.57391065      -1.33184087      -0.37358207
C        3.67347000       7.51899000       2.61663000      -0.35131081      -0.37621778      -0.47750938       0.43648076       0.34788930       0.56563485
C        0.22957000       3.51671000       0.27889000       0.85653627       0.73830925      -0.82207992       0.06176353      -0.35861582      -0.35481411
C        3.37811000       5.78759000       7.53927000       0.10562124       1.09532979      -0.01990833       0.53154224       1.12838900      -0.34582007
C        4.60339000       4.79645000       4.61948000      -0.19343318      -1.52196470       0.18600358       1.02627194      -0.52882516       0.44329572
C        6.81855000       5.63462000       6.14178000       0.10685537      -1.00297140       0.45554864       0.87200862      -0.09676430      -0.13797368
C        0.90766000       3.14539000       4.24165000       0.72908184      -0.84677012      -1.39194425      -0.24704313       0.18120816      -0.11676180
C        0.87298000       2.03145000       5.47436000      -0.13532515       0.47913821       0.52000529      -0.15399523       0.24000356       0.05970126
C        0.44785000       1.10430000       2.51376000      -0.40488351       0.10198044      -0.70807402       0.11798227       0.17502964      -0.23710239
C        1.31965000       6.57709000       6.24733000       0.55678858      -0.95572323       0.23159223      -0.32655060      -0.81244069      -0.07737043
C        0.77847000       5.62012000       1.35873000      -0.86552814      -0.23952553       0.38181323       0.20988332      -0.57783896       0.21486229
C        3.20735000       1.97174000       1.01210000       1.04505615       0.50396376      -0.26806882       0.36380824      -0.57749283       0.44211131
C        3.31175000       2.14767000       2.46073000       0.62288590      -0.23172410      -0.21663788      -0.12375383       0.52813995      -0.45942712
C        4.45590000       4.27648000       2.15935000       0.01017182      -0.04018607       0.27676044      -0.11520556       0.39671296      -0.91269296
C        4.88269000       4.12489000       5.92707000      -0.24615850      -0.34774638      -0.05031155       0.35042647       0.27767047       0.64724582
C        6.15075000       3.30718000       3.58175000      -0.59580522      -0.75959567      -0.04739804       0.87236297      -0.34815133      -0.75898874
C        7.27562000       1.23008000       4.97338000      -0.52309631       0.22889906      -0.12241227       0.06026987      -0.95531005      -0.35252118
C        3.92849000       1.18852000       3.24246000       0.18645622       0.33849453       0.53419381      -0.05373096      -0.08649866       0.45238379
C        4.28131000       2.65685000       0.20992000      -0.77789587       0.37405352       0.14545230      -0.28378570      -0.47481307      -0.40000653
C        6.32284000       4.06705000       0.22058000      -0.78080118      -0.47428776      -0.37901827      -0.17151594      -0.26796404       0.19751063
C        6.58522000       0.29848000       5.99038000      -0.44113633       0.63398908       0.19493520       0.49655652       0.19514650       0.75948429
C        0.21424000       7.02922000       0.75325000      -0.32829760       0.22689027      -0.82096533      -0.63001764       0.02197808      -0.49375162
C        5.90759000       7.44550000       3.58799000      -0.39626477      -0.08168476       0.60994503       0.29397264      -0.25933170      -1.06143808
C        1.87709000       1.43340000       0.43631000      -0.63322268      -0.66634444      -0.04827264      -0.06032193       0.39141238      -1.17508030
C        2.75006000       4.48210000       0.17805000      -0.10741836       0.96896767       0.37020330      -0.45503974       0.24684352      -0.77376211
C        6.32027000       2.71297000       2.10710000      -0.60880746      -1.09574150      -0.78800411       0.05195618      -0.71203578      -0.19960165
C        5.28693000       1.99604000       6.96142000      -0.16804530      -0.55148458      -0.13784583      -0.49070752      -0.25412494      -0.20934165
C        5.28149000       3.43211000       1.17970000      -0.06507488       0.57812995      -0.33839811       1.30337882       1.09951520       0.65290248
C        2.44785000       3.27551000       2.75233000      -0.30072364       0.29987541      -0.51576608       0.80989820      -0.38941336       0.35698333
C        4.98050000       6.94507000       2.49717000      -0.32082333      -0.18832758      -0.30369388      -0.03411984      -1.09880245      -0.02109790
C        2.42126000       6.72387000       7.14731000      -0.39373176       0.97292956      -0.04944981       0.17737988      -1.97594929       0.74148905
64
Lattice="7.605088 0.0 0.0 0.0 7.605088 0.0 0.0 0.0 7.605088" Properties=species:S:1:pos:R:3:momenta:R:3:forces:R:3 virial="17.166598152555693 5.991147713396794 -33.39090528862955 5.991147713396794 41.228166781458995 3.125136537892319 -33.39090528862955 3.125136537892319 -19.953289831841346" config_type=Amorphous_Bulk pbc="T T T"
C        6.13088573       0.95175999       7.25774575       0.97723953       0.07320474      -0.10150436       1.78491867      -1.22485960      -1.31486654
C        6.40841620       0.28607020       0.95350842       0.62865787      -0.48507731      -1.06286698      -0.17394981      -0.53398275       0.01856975
C        5.71000214       5.02827404       6.93275002      -0.80785635       0.46904045       0.17580708       0.86587650       0.72640115       0.53656936
C        0.81227161       2.25253210       7.04921555       0.29521054      -0.12687217      -0.29575696      -0.38801360       0.33441940       0.10242422
C        2.10214667       5.71263499       2.08044039       0.26361762      -0.27579191      -0.16443918       1.44757724       1.43530142       0.63939142
C        0.10871638       3.38760863       1.86938372      -0.86876390      -0.72006266      -0.79453740      -1.52935982       0.12563154      -1.46100032
C        5.12702388       1.12791189       4.17549345       0.40898595      -0.20804979      -0.41687142      -0.44967574       0.83318520      -0.77997696
C        7.39702019       0.33083938       3.65286184       0.36396911      -0.42831411      -0.08654712       0.51086515       1.05018926       0.01727077
C        5.34778311       7.54160820       5.00164618       0.12646512       0.27037535      -0.00800947       0.76433969      -0.40889281      -1.08290339
C        2.48492784       7.05381691       2.08946787       0.08513104      -1.15800598       0.22883318      -1.33327746      -0.28247154      -0.84950382
C        7.35341715       4.23908023       3.99942902       0.99037375      -0.30255884      -0.24331485       0.07424890       0.67701733      -1.33654416
C        3.56981036       5.83392363       4.78438193      -0.57219616       0.47390296       0.15674724      -0.12999493      -1.23615324      -0.42060798
C        4.81986330       5.99266644       0.15390251       0.16178484      -0.34470403       0.13561288      -0.77575022      -0.11319390      -0.51609552
C        1.23356658       4.63653584       0.15523943       0.22989675       0.74282648       0.75236679      -0.50441051       0.94375199       0.16172647
C        2.45328755       1.69921696       5.13316894      -0.00191732       0.13414060       0.34529621       0.11304308      -0.20441866       1.60806632
C        0.96782172       2.59444672       2.74668252      -0.43998615       0.49266976      -0.36514807       1.92078447       0.75267333       1.66980934
C        2.90755933       3.03601319       5.41617526      -0.08478037      -0.82472798      -0.03726623      -0.32767385      -1.17465878      -0.03821702
C        3.13298290       0.53602820       5.72684005      -0.36447562       0.29738497       0.27083728      -1.00915372       1.20227873       0.52798522
C        2.28268283       5.35568433       4.50198114       0.97355991      -0.66216767       0.21801584       0.34577960      -0.96985960       0.54379308
C        5.33958716       6.86334380       1.14956921       0.48055268      -0.02718856      -0.51513084      -0.32791066      -0.27419412       0.49111491
C        1.16529466       5.90388192       5.18730622      -0.53469087       0.23059233      -0.61896987       0.81542867      -1.04579473      -0.97346371
C        2.79719671       0.46588664       7.12551407      -0.54080204      -0.17825488      -0.86408393      -0.56471562       1.25635219       0.26062602
C        6.70168585       1.35701212       1.97450172      -0.07738281      -0.07288901       0.95118332       0.79110354      -0.43672383      -0.15198784
C        6.03355523       2.22000636       4.65039305       0.32545269      -0.52229247      -1.11647474      -0.05069488      -0.17932966      -2.16313505
C        5.57171764       2.80191497       5.84177377       0.47729693      -0.20775959      -0.14821727       0.44956061      -0.50186443       1.05698812
C        4.93782650       4.21616156       3.48425285      -0.22461157       0.86582517      -0.42164724       0.34434611      -0.91948414       0.06953509
C        7.45547628       5.35377460       5.01044203       0.11484338       0.17996784       0.85287606      -0.26891875      -0.78985667       0.94637513
C        3.56752471       3.48301735       6.72892951       0.51925674      -0.04799890      -0.01822230       0.54242980       1.96677685       0.17509164
C        7.60870435       6.79175019       6.88245129       0.66776009       1.18160071       0.40584507      -0.43123394      -0.43110555      -0.85092759
C        3.97968871       7.09100525       5.21338274      -0.31577247       0.77445561       0.78245348      -0.00088470       0.31670362       0.67854679
C        1.27405899       0.35047430       1.45049057      -0.06701674      -0.34149529       0.13047701       0.01504615       0.67423314      -0.15467933
C       -0.07139856       4.76406498       2.35567106       0.60263589       1.35892665       1.07414501       0.77821606      -0.54075247      -0.47696996
C        2.99226993       4.45496560       1.83578258      -0.09446424      -1.19163671      -0.84152775      -0.50265354      -1.08208430       0.77581811
C        2.22701543       3.80995324       4.32151299       0.81618257       0.24264971      -0.54721294       0.71863699       0.64130145      -0.69077992
C        3.68264418       7.46471861       2.71376076       0.33429445       0.62011764      -1.46162062      -0.24493682      -0.41123569      -0.35673240
C        0.23352960       3.48396484       0.22072117      -0.17586177       0.30228920       0.70443954       0.14579356       0.29986382       1.47428429
C        3.41173791       5.73332047       7.54973408      -0.02911247       0.15180243       0.15225918       1.63675165       1.01265907       0.28542405
C        4.57319854       4.78995871       4.65970715      -0.44837860      -0.92029688      -0.36006735      -0.00265315      -0.04588689       0.81479633
C        6.78405443       5.70386043       6.17519330      -0.30551157      -0.28686952       0.31516916       0.10718912      -0.52500939       0.92897838
C        0.83804689       3.19304385       4.25605236      -0.04512491       1.00622548       1.22096544       0.34010488       0.49662149      -0.55851960
C        0.87803528       2.04540010       5.36877858       0.19242951      -0.07420997      -0.74092809       0.84559375       0.19530608       0.55231893
C        0.49631965       1.15858670       2.53730165       0.01271566       0.16583746       0.86876139      -1.01145613      -1.17748666      -1.63058746
C        1.33388869       6.39834582       6.50230105      -0.75495889      -0.78031027       0.88524617      -0.67614424      -1.44603121      -0.84067905
C        0.82277884       5.58593531       1.40932155      -0.42480033      -0.43862854      -0.96540174      -2.22446990      -0.59258753      -0.44859731
C        3.29719640       1.78494920       0.88739143       0.25141927       0.11911283       0.44205335      -0.15959254      -0.06471106       0.70587993
C        3.28004440       2.00119642       2.38892484      -1.15663274      -0.74148938       0.36030692      -0.24547699       1.94087744      -0.97289759
C        4.45408029       4.30600932       2.17986174      -0.63980524      -0.90038456       0.54287588      -0.32615548       0.72082508      -0.20057011
C        4.94481964       4.11713643       5.97422808      -0.10488242       0.73720075       0.44365245      -0.95810032       0.65363562       0.00699227
C        6.13098681       3.32717001       3.58252722       0.20360631       1.32555063      -0.60373315      -0.15669024       0.33461395       1.50534153
C        7.35923488       1.17701230       4.94978635      -0.55688244      -0.03026334      -0.46001674      -1.05582738      -0.84596157       0.07161236
C        3.90154626       1.15486318       3.27581345      -0.28711239       0.10157489      -0.54804122       0.49016559      -0.25948170       0.85539937
C        4.34574424       2.61872832       0.16618560      -0.78279831       0.25375529       0.13858288      -1.47203445      -0.68019754       0.83919489
C        6.35246567       4.17606623       0.39007697       0.18088931       0.24075784       0.56618623       0.02826977      -0.59376198      -0.93677557
C        6.72118737       0.31248267       6.04991266      -0.47082089       0.46380700       0.62087527      -0.74035865      -0.16444284       0.79528904
C        0.13513468       7.02036050       0.78722588       0.43365834      -0.15725419      -0.57989044       1.05210233       0.02482271       1.17808378
C        5.97411230       7.41128337       3.53189264      -0.65189142      -0.66286263       0.03425565      -0.63235331       0.61463892       1.59416270
C        1.76351692       1.38231494       0.22912571      -0.44413067      -1.02048818      -0.03900357       1.57635641       0.18525577       0.62751102
C        2.76229100       4.46148959       0.19002249       0.39908704       0.24762624       0.17818251      -0.19074908      -0.87862349      -0.97312742
C        6.27545455       2.73903165       2.19454017       0.00235471       0.75106053      -0.04809677       1.63907778      -0.64060295      -1.42839122
C        5.37806774       2.00135460       6.97769623       0.96297460       0.26657918       0.71966948      -1.39930892       1.54414117      -1.02560711
C        5.30668868       3.47225889       1.26979942      -0.43648646       0.43595714       0.99897222       0.35495418       0.53674698      -0.71856993
C        2.48432595       3.21675254       2.70068695      -0.15782155      -0.42158735      -0.29298497      -0.69951117      -0.52809465       0.49970084
C        4.98684063       6.92200667       2.52396219      -0.49549712       0.12075336      -1.35390916       0.79490328      -0.55646920      -0.31441900
C        2.52447853       6.67932356       7.22292067       0.88092455      -0.53707852       0.44849258      -0.32937369       0.26404145       0.65246141
64
Lattice="7.605088 0.0 0.0 0.0 7.605088 0.0 0.0 0.0 7.605088" Properties=species:S:1:pos:R:3:momenta:R:3:forces:R:3 virial="17.166598152555693 5.991147713396794 -33.39090528862955 5.991147713396794 41.228166781458995 3.125136537892319 -33.39090528862955 3.125136537892319 -19.953289831841346" config_type=Amorphous_Bulk pbc="T T T"
C        6.57264996       1.22647249       7.19666490       1.04680646       1.40739304       0.48031242       0.24679506      -2.06307125      -0.79128957
C        6.52594392       0.35255496       0.90634969       0.79231443      -0.03979308       0.88498992       0.52375448      -0.54438263      -0.10985637
C        5.71480422       5.07617682       6.91070324       0.35524248      -0.03224022      -0.57315356      -1.13805246      -0.65421695      -1.16069305
C        0.36620340       2.11033493       7.00191753      -1.88225952      -0.79418997      -1.37232038       0.63773096       2.35352015       2.04115963
C        2.09804513       5.86241162       2.13121429       1.20279411       0.51076181       0.40437994       0.57909799      -2.07762766      -0.25370836
C        0.03811099       3.39111524       1.81402305       0.00563342      -1.50583437       0.77020435       2.76634884      -1.83924985      -1.40696311
C        5.01903362       1.21594098       4.19606975      -0.00887520      -0.40840264       0.29198088       1.10321689      -1.56249321       0.43658835
C        7.24872362       0.58139418       3.54853711      -0.59376587       0.35668907      -0.43884510       0.75112218      -1.10998297      -1.63676667
C        5.26377975       7.54325067       5.00689675      -0.32804033      -0.66093865       0.75613696       0.51660115       1.16912568      -1.16311598
C        2.49145868       7.13449012       2.06471473       0.43204122      -0.68594518       1.64674565       1.51056623       0.98769218       0.55996305
C        7.32861663       4.15447628       3.90699792      -0.25295911      -0.19696348       0.44752407       1.40647602       0.99695683      -0.72831029
C        3.60358649       5.81569200       4.83479659      -0.66990405       0.43304058      -0.84734246      -0.06449266      -1.84623766      -0.63717967
C        4.84901226       6.06128246       0.12052602      -0.52762024      -0.66145807      -0.34998307      -0.64585996       0.61015528      -0.16331010
C        1.22320704       4.76091779       0.28875104      -0.73709046       1.19742124      -0.31140612       0.26303941      -1.39174294      -3.38341403
C        2.31655890       1.77349119       5.34408232      -1.02887156       0.27746080      -0.92957021       0.18858659      -0.50429195       0.14927512
C        1.12093933       2.68156078       2.79018403      -0.75057110       0.95647520      -0.39967990      -2.16338491      -2.03887844      -1.47860277
C        2.88314766       3.04357902       5.49564830      -0.89520305       0.10147595       0.56706111      -0.22590151      -1.26021218       0.04183710
C        2.85593206       0.47869744       5.70570596      -0.14535484      -1.02162932      -0.45951477       0.48545405       0.94709253       0.09321600
C        2.39655659       5.18863927       4.63607293       0.07803085      -0.07162197       1.06055796      -2.29794335      -0.15345153       0.80961275
C        5.38677993       6.97010095       1.08755600       0.11720131       1.06748226      -0.50579563       0.19530183      -0.09568475       0.66383553
C        1.20523257       5.39276299       5.38140647      -0.42800220       0.89625178      -0.46831886       1.52134097       1.43059158      -1.03591967
C        2.40186968       0.38332145       6.99060332       1.29682154      -0.19437186      -0.71135675       1.58424246      -0.12465397      -0.71928692
C        6.82764125       1.32109645       1.96928282       0.22404481      -0.71457082       1.49680279       0.59831291       0.64295959       2.27421689
C        5.99467009       2.19203599       4.59565763       0.21377161       0.20294087       0.56565052       0.73679900       0.86805439       0.02925792
C        5.51745676       2.78398788       5.80490276      -0.11797866      -0.23869885      -0.08121088      -0.27456480      -0.24891771       1.75984836
C        4.90768257       4.12469014       3.43508129       0.75388608       0.34107659      -0.45888211       1.95304561      -0.35704052       0.35822153
C        7.47991034       5.11787252       5.02816494      -0.50641230      -0.63496306       1.48648171      -0.33657011      -0.30999380       0.29880485
C        3.62951513       3.59224735       6.75826279       0.29611697       0.26739252      -0.38176190      -0.89297956      -0.81280673       0.01504533
C        7.52583418       6.66072667       6.75910801       0.10207141      -0.01131340      -1.72032026       2.47402048       0.46765241       1.41972256
C        3.87625084       7.10824888       5.18068670      -0.30501554      -0.41434257      -0.38433158       0.01889705       0.68702257       0.63084000
C        1.40403623       0.40661041       1.46697482      -0.15930964      -0.65473140      -0.51580882      -0.85596198      -0.47884348       0.09094393
C       -0.02963899       4.64257922       2.36151723      -0.43409913       0.51830112       0.00285627      -0.03606038       3.63197684       1.69258428
C        3.03680515       4.57755490       1.93548056       0.36817342      -0.28443578       0.13113108      -0.76520413      -0.94800133      -0.82075942
C        2.27249111       3.74929937       4.30812939       1.19009521      -0.06104052       1.43284570       1.44872284       1.25633919       0.54219258
C        3.75119241       7.55428896       2.66535680       0.19837511       1.41893237       0.03896234      -0.54986095      -0.38837630      -1.17308402
C        0.20207501       3.46456830       0.29208112      -0.47696166      -0.75029566       0.33756950      -0.62553078       1.87976933      -1.57144260
C        3.43751438       5.80743779       7.52891408       0.24144599      -0.49444635      -0.04616928       0.91662025       0.58335060       1.16895449
C        4.66993765       4.80801684       4.59785364      -0.61943844      -0.35566402      -0.07244840      -1.41175079       0.00032757       1.13099611
C        6.73297064       5.64294084       6.08153991      -0.93074126       0.41839503       0.13186719      -0.45929998      -1.02331054       0.73213369
C        0.88129132       3.16573629       4.20381878       1.17168622       0.02001247      -0.53584084      -1.31480157       0.59673846       0.60877615
C        0.78903243       2.07370889       5.43955707      -0.86689179      -1.32116222      -1.00116013       0.21958545       0.00871733      -1.18495369
C        0.64886016       1.18380357       2.47614028       1.10711790       1.47302913      -0.07057232      -0.86406296       0.64952648      -0.01727450
C        1.28131503       5.93130248       6.70470573      -0.33257022      -1.24328962       0.57965082      -1.04590595      -0.21650881       0.68028754
C        0.75834465       5.61334884       1.48148609       1.41279336      -0.78990291       1.34318151      -0.43370566      -0.00084101       1.27960801
C        3.13964396       2.09230991       0.98551938      -0.84510179      -1.30199056      -0.35266580       0.83514953      -2.06171799      -0.48041207
C        3.44915510       2.26987254       2.43736636      -0.10574483       0.99021886       0.76036141      -1.88140106       0.38698587      -0.68855858
C        4.51139929       4.32459082       2.11024641       1.24350178       0.38523577      -0.10858438      -0.14807940       0.14936545       0.75556976
C        4.85971386       4.10102418       5.94808349      -0.32388287      -1.35080564      -0.64712400       0.56038016       1.16398406      -0.25452653
C        6.13360562       3.24137052       3.53714869       0.28144899      -0.00833995       0.16070189      -0.76162148       1.02097821       0.57161683
C        7.31222191       1.18814294       4.90838221       0.16215361       0.05572930      -0.51433612      -0.34943944      -0.36694553      -0.42979693
C        4.02047204       1.26668739       3.21624475       0.55136967       1.14425053       0.20314323      -1.15823948      -0.92042756      -0.67357588
C        4.29527498       2.55402979       0.14593177      -0.19064466      -0.20953994      -0.10964742      -0.77326083       0.89771742       0.56052029
C        6.29561940       4.07599178       0.17330419      -0.77580943       0.29678913       0.40912628       1.43942404      -0.56016409       1.32789826
C        6.84272562       0.21429761       6.00604016      -0.38743579      -0.06597239      -0.19557081      -1.82952821       2.41419101       0.33749205
C        0.16347173       7.04896957       0.77113325       0.07739604      -0.58406038       0.44668728       0.47344387      -0.77690923       0.65672207
C        5.92276362       7.45538394       3.59248925       0.07249886      -0.86238689       0.92642602       0.04774040      -0.63159704       0.14334980
C        1.98709676       1.30631489       0.38509041       0.13367891      -0.63514076      -0.17815861       0.31393546       1.35935342       1.33245754