27
Lattice="6.403228 0.0 0.0 0.0 6.403228 0.0 0.0 0.0 6.403228" Properties=species:S:1:pos:R:3:momenta:R:3:forces:R:3 virial="26.379653532115288 -2.8806012487978325 9.10033438939633 -2.8806012487978325 29.382052443831384 -5.3396463792146145 9.10033438939633 -5.3396463792146145 19.280274427293133" config_type=Amorphous_Bulk pbc="T T T"
C        6.36673000       0.38334000       4.97441000      -0.87248226      -0.39517188      -0.52838894       1.80470967      -1.97389793      -1.96454179
C        0.57614000       0.46532000       1.60801000       0.58214365       0.62180258       0.92998464       1.69519699      -1.15353525      -0.13582540
C        4.75409000       3.84822000       1.93411000       0.26993619       0.07864999       0.06580844      -2.46323204       1.79242611      -4.18726969
C        5.96414000       1.12766000       1.28387000      -0.02809738       0.38218959       0.49373190      -4.72761536       0.16613853      -2.44870853
C        3.72692000       1.87361000       1.41252000      -0.59589818      -0.23304536      -0.18730186      -1.78766298       2.24921656      -0.95912009
C        2.87941000       0.29846000       4.14221000      -0.24181809      -0.99914513      -0.33183370       0.61127371       0.54628813       1.86117959
C        4.59222000       6.38383000       2.50338000       0.46364005       0.45557321      -0.21447147      -6.67468214       1.50358212      -0.73220539
C        1.67263000       0.41975000       2.26556000       0.17861472       0.18819905      -2.10264867       5.77526331      -2.15544486      -2.78202987
C        3.48240000       3.29348000       1.70380000       0.11090890       0.18939296       1.41092719      -2.18688059      -5.42205095      -0.96091056
C        5.26536000       3.06203000       3.89985000      -0.27384967       0.16558187       0.89053827       4.25531149      -7.68193007       6.40034723
C        5.19366000       6.04205000       0.53600000       0.20400357      -0.45202380      -0.51241499      -0.46770352      -0.48426515      -1.59868705
C        4.91066000       1.50567000       2.31530000      -0.27770501       0.82186654      -0.20523259      -3.18800879      -6.32579517      -1.21057332
C        4.50728000       4.95369000       1.02695000       0.33985256       0.39250880       0.22013725       2.96633267       0.81999445      -1.54764843
C        0.37564000       2.59844000       3.68645000      -0.54475430      -0.24988656       0.23233010      -6.49371099       1.74916101       3.32090282
C        2.21134000       3.51102000       2.09637000      -0.43331740      -0.34044123       0.56677062      -3.62929630      -1.27009189       3.76327467
C        2.24151000       0.89054000       0.95924000       0.77010934      -0.38106228       0.46223968       2.77517962       2.73057938      -2.08928037
C        5.00091000       5.19025000       5.73594000       0.31627074       0.96823399       0.16584489       0.32888114       1.14324701       5.12762117
C        3.53894000       1.37732000       5.01113000      -0.88790973      -0.30724165      -0.28455463       1.60227430      -1.31613004      -4.89602566
C        5.57320000       5.64110000       4.56637000      -0.21555299       0.16129101      -0.03446072      -0.28313875       2.12267947       2.65304422
C        4.81035000       5.40350000       3.39802000       0.03120532      -0.32098003      -0.34543682       4.96441746       1.87300467       4.07185555
C        1.31881000       2.97191000       2.97168000       0.67995696       0.06361871       0.06578280       7.97893763       5.41829205      -7.46876287
C        4.48351000       1.85249000       4.01644000      -0.16759727       0.50128281      -0.75713482      -0.76977533       2.77362442       2.14290857
C        4.84849000       4.07512000       3.29872000      -0.69123472      -0.45414302      -0.69369628      -2.03365231       5.23529339      -5.72912502
C        1.62164000       0.47919000       4.51994000       0.45174210      -0.41709223       0.87439480      -8.16345882       2.25257206       1.90069175
C        0.45834000       1.44630000       4.34254000       0.17116456       0.00247079       0.33599285       4.69292974      -3.91344333       2.39469504
C        2.79015000       1.43520000       6.20754000       0.34559038      -0.45832343       0.18942794       1.14741039      -0.49142677       3.81165767
C        2.88397000       6.30924000       2.82562000       0.31507797       0.01589467      -0.70633586       2.27069664      -0.18808687       1.26253676
27
Lattice="6.403228 0.0 0.0 0.0 6.403228 0.0 0.0 0.0 6.403228" Properties=species:S:1:pos:R:3:momenta:R:3:forces:R:3 virial="26.379653532115288 -2.8806012487978325 9.10033438939633 -2.8806012487978325 29.382052443831384 -5.3396463792146145 9.10033438939633 -5.3396463792146145 19.280274427293133" config_type=Amorphous_Bulk pbc="T T T"
C        6.55135315       0.44234916       4.74671091       1.63159222       0.63514168       1.40621298       0.12987304      -1.17371702       0.94402027
C        0.85932957       0.67361384       2.06425646       0.92432115       0.13834840       0.44315222       0.52228808       0.11593246      -0.71215701
C        4.12345280       4.09247134       1.63229771       1.18801699      -0.51726835      -3.38164431       1.76768184      -0.26014823       0.40320921
C        6.03859836       0.59385426       1.55233048       1.07344306      -3.41379713      -1.65956845      -0.99796802       1.79324412      -0.28106269
C        3.82678688       2.08558522       1.13766553       1.23138915      -0.66245639      -1.02572268      -1.57281399      -1.87071395      -2.91100001
C        2.60454102       0.29261189       4.23498194      -0.82247732       2.61151236      -1.22359764       2.11846161       1.53318465       0.76136053
C        4.19356020       6.49885443       2.62426627       3.59268613      -0.59671204      -2.53470833       0.07168961      -1.12883687       0.52067709
C        2.07216489       0.19783830       1.62629013       0.11476218       2.05327773       1.16217146      -2.31109047      -1.67344308       1.58728468
C        3.00917620       3.20458724       1.55295228      -3.41741023      -1.83167766       1.50118126      -0.20400196       0.16255885       0.09772751
C        5.34074360       2.97545498       3.69788622      -1.57110103       0.72962867      -2.84152159      -5.66312742       1.33623219       0.09689623
C        5.74374225       5.90186709       0.77451794       2.22550180      -0.62939680      -0.22877607      -1.52229846      -2.03196287      -1.98096740
C        4.55796532       1.28493155       2.00512124      -1.86625958       4.28520497       0.40571724       3.39501023      -1.93403006       1.52101040
C        4.82752695       4.77498188       0.63589189      -1.21677212      -0.77163422       0.28755519      -1.10634363      -1.26778698       4.72070646
C        0.18462544       2.98122514       4.22360719       0.82047116       2.20667141      -0.63629368       1.37379074      -1.08082652       0.29515576
C        1.89923866       3.28120194       2.33164257      -0.01557816      -1.14844838      -0.63836394      -2.97097993       1.02501082       3.51692009
C        2.40600401       0.15719181       0.14203341      -2.75982223      -4.17532486      -1.45221584       0.57330567       3.41368341       1.93463016
C        5.13181341       5.42697203       5.97046331       1.87332064      -0.17744536       0.15811928       3.34154773       2.30670190      -5.10894728
C        3.68284353       1.29885625       4.90783827      -0.40180116      -0.58776670       0.66276772      -0.83594018       0.12486278      -1.46580029
C        5.59035155       5.72584399       4.63726544       0.87495449       1.35416068       0.44513289      -0.83362031       1.69088459      -0.46467590
C        4.82200299       5.44317942       3.33789579      -0.21101504       0.57632972       1.91274809       4.79433250      -0.39246720       3.32694745
C        1.00724763       3.59115460       3.28169499       0.59015162       0.04576797       2.82275930       5.54310703      -0.52269506      -4.19051361
C        4.18746088       2.16742223       3.93144256      -0.66277096      -0.34750918      -0.48577010       2.05727625      -1.06888044       1.17329264
C        4.93894919       4.12220134       2.90801765      -2.36477789      -0.92311928      -0.26073748      -2.13884354       1.22289586      -1.44135642
C        1.64443549       0.51129560       5.29841462       1.55809618       0.43077389       1.68254330      -3.76545215      -2.02368855      -2.13068748
C        0.51126252       1.72113535       4.74927932       0.33335796       0.33300082       1.87251486       1.15004241      -1.97933531       1.17768848
C        3.43249253       1.21575295       6.33676613      -1.90250758      -1.69340757       1.14074166       0.38796318       0.71347857      -0.68745959
C        2.86077098       6.17629616       2.90043973      -0.81977147       2.07614561       0.46560261      -3.30389071       2.96986151      -0.70290029
27
Lattice="6.403228 0.0 0.0 0.0 6.403228 0.0 0.0 0.0 6.403228" Properties=species:S:1:pos:R:3:momenta:R:3:forces:R:3 virial="26.379653532115288 -2.8806012487978325 9.10033438939633 -2.8806012487978325 29.382052443831384 -5.3396463792146145 9.10033438939633 -5.3396463792146145 19.280274427293133" config_type=Amorphous_Bulk pbc="T T T"
C        6.69651435       0.46350720       4.92418542       1.85056697      -0.29934096       0.85290881      -0.78215951       1.65853369       0.29206330
C        0.53495344       0.59948159       1.77823242      -0.69147328      -1.33181909      -1.85376703       4.63659143       2.93195963       1.74645913
C        4.07083616       4.25806790       1.72283282       2.93397679       1.29904419       0.23540366       1.46766281      -0.06339729      -2.26860261
C        6.05989817       0.01704757       1.22915438      -1.07985851      -0.23538410       0.52874583      -4.37340736      -1.64992702      -1.62673926
C        3.92451926       2.17605834       1.21102883       0.71281373       2.01905274      -1.96217694       0.06992453      -4.63650131       0.13739580
C        2.63002592       0.43021244       4.30357427       0.09519197      -0.99774543       0.20504728      -0.25864875      -0.00005174      -0.63761008
C        4.16267487       6.45531314       2.51333643      -0.85104528      -0.19752300      -0.27333066       0.10466851       0.55303448       2.39716387
C        1.86528777       0.59050771       1.47183355      -0.20619620       1.78205643       0.05617822       0.47510970      -2.13822103       4.34737587
C        3.09714148       3.29996446       1.51068844       0.74649168       0.17651939       0.85758192       0.42006743       0.26561213      -0.39134455
C        5.17623240       3.31188490       3.92925754       0.50200832       0.25609208      -1.72612364       0.37995431      -0.14625798      -1.31735778
C        5.73617467       5.41094970       0.43408642      -0.91588999      -1.80173743      -1.53123976       1.69572914       0.88845503       2.37115812
C        4.15575341       1.48587442       2.56923191       0.73534239      -0.47934660       0.17206144       0.70806146       1.53318989      -1.93396950
C        4.91223339       4.41510420       0.56945581       0.50425372      -0.49021669       0.27513554      -1.90107369      -0.75811964      -0.72143245
C        0.27408600       3.10203534       4.29911449      -0.87479544      -2.09532200       1.69817458      -2.36367583      -3.01368380      -1.13674402
C        2.17185505       3.22698581       2.44768637       1.69343726       0.70485756      -1.37426715      -4.14575243       0.29253927       1.65848827
C        2.38212617       0.55028913       0.13955025       1.39117204       0.67831889       2.09293172      -2.56805801      -0.91131639       1.67685807
C        5.52195627       4.86816703       5.61550251      -0.91428343      -0.41342996       0.17025314      -0.37576464      -0.30824280       0.47286305
C        3.70627732       1.39768588       4.92679988       1.03789540      -0.97100419       2.44978821      -1.97851300      -2.39818668      -0.25118887
C        5.82245784       5.77595618       4.64216628       0.38017301       0.35351862       0.31143870      -2.09126019       1.21244693      -4.29507113
C        4.98989060       5.61233472       3.42306223      -2.14777327       1.48941205      -0.03518799       0.37326843      -0.24236891      -1.40719378
C        1.16399010       3.25247455       3.17543164      -3.12046398      -0.71754068       0.29610725       0.20477279      -0.16490403       1.61210060
C        4.31626729       2.14001424       3.95286744      -2.18167902       0.22594703       0.07090644       1.13450372      -0.14723538      -2.36991882
C        4.84680679       4.30388281       2.90690952       1.24755815       1.31059320       0.17084462       0.80712521       1.37390566       4.36980438
C        1.64564051       0.13270709       5.33622733       1.17478879       2.58944043      -0.12220633       2.83905745       1.52807355      -0.33387721
C        0.02973386       1.86392799       5.02906466      -1.57460976      -2.04285451      -1.17021247       1.35220790      -0.55838549      -1.34217644
C        3.50738237       1.27803751       6.33058036      -1.46082046       1.33608856      -0.27379311       2.40738297       2.58386397       0.61733210
C        2.64772454       6.42025815       2.85010882       1.01321844      -2.14767651      -0.12120226       1.76222742       2.31518531      -1.66583502
27
Lattice="6.403228 0.0 0.0 0.0 6.403228 0.0 0.0 0.0 6.403228" Properties=species:S:1:pos:R:3:momenta:R:3:forces:R:3 virial="26.379653532115288 -2.8806012487978325 9.10033438939633 -2.8806012487978325 29.382052443831384 -5.3396463792146145 9.10033438939633 -5.3396463792146145 19.280274427293133" config_type=Amorphous_Bulk pbc="T T T"
C        6.78492865       0.27849106       4.89499373      -0.22612401      -1.02920628      -0.36520627       2.00566387       1.47887135       0.10205364
C        0.75130602       0.47688705       2.10254268       0.70082396      -0.18586939       2.03958668      -4.37842274       0.19054863      -0.66035897
C        4.09738294       3.87182501       1.51124756       0.20931758      -0.96767625       0.79333825       0.89831960      -0.58802009      -0.18074381
C        5.94208852       0.11336822       1.51976400       2.14084863       0.81377654       2.04892506       1.33941567      -1.03666377      -0.23008457
C        3.81565786       2.28912181       1.23678123       0.96817675      -0.63710721       2.60751760      -0.02814108       2.19355106       2.17084670
C        2.74287070       0.57218894       4.33703105       0.46040607      -0.18051974      -1.27846950      -0.70033431      -1.94301450       0.62976313
C        4.49510783       6.59178452       2.42278802       1.48795362       1.63085384      -0.64654400       1.86641884      -0.65995479       0.38645494
C        2.00577922       0.39631687       1.69935778      -0.46194998       1.01340120      -0.51506495       0.29924345      -1.22234774      -0.43474084
C        2.70806432       3.38430615       1.53765166      -3.24544341       0.98983845      -3.20858817       3.57478499       0.96721977      -2.60537887
C        5.06479135       3.32105578       3.84122961       0.28494030      -1.97590941      -0.23659057      -1.60008478      -0.70778811      -0.31902033
C        5.87317814       5.38171313       0.63466612       0.75951214       1.77388195      -0.13327073      -0.43204674       1.28089046      -0.45680356
C        4.10315222       1.57165289       2.50849463      -2.44879250      -0.33996936       2.75580893      -0.91710973       0.03792942       1.95506024
C        4.91055377       4.45502609       0.49163498      -1.27505004       0.97993969      -1.03577051      -0.48453042       0.27847436      -0.87727851
C       -0.08836658       2.82413652       4.02887482       1.12649122       1.68713257       1.84043545       4.31514597      -2.03671551       1.10774124
C        1.90775164       3.53800992       2.50835725       0.98817649       0.61000345      -0.75381065      -1.98498642      -0.05436739       1.52157867
C        2.47738488       0.55092845       0.34116655       1.99568756      -1.86851785       0.04930450      -0.27647278       1.27501941      -3.43814206
C        5.48181539       4.96668582       5.67452031       0.92747557      -0.95922860      -0.64394357      -0.09269285      -0.91608691       3.45442557
C        3.59809443       1.59103190       4.93110449      -0.27441609       1.13887910      -0.83499162      -0.90546966      -1.63336456       0.81650859
C        5.87450386       5.64772393       4.60345323       0.31213022      -0.86261052       0.06890146      -1.33405674       1.02905810      -3.93965697
C        5.21138863       5.55370536       3.24160995      -1.15474970      -0.97773997      -0.26160396      -1.82380342      -1.04786038       1.68782723
C        1.10790888       3.10554027       3.33404572      -2.07134773       1.02187313       0.65440744      -2.63430214       0.62204170       1.58173525
C        4.16940195       2.23544995       3.90757832      -0.46328895       0.16476233       1.29856049       0.48738807      -0.10043356      -2.08273602
C        4.73246983       4.26156616       2.87806479       0.61066969      -1.31611258      -0.27994764       0.64599532       2.17777395      -0.25203693
C        1.84535967       0.07707726       5.41219726      -0.43641612       0.18195446      -1.65497552       0.46260223       1.98153281      -0.84192270
C        0.06214995       1.51204179       4.48726136       0.59501902      -0.40121305      -1.06519682       0.21365997      -0.38403606      -0.23667690
C        3.42449924       1.62401241       6.44117545      -3.68048654      -1.15939060       0.86084729      -0.65683544      -3.15799546      -1.97521257
C        2.94921670       6.64708274       2.71437744       2.17043626       0.85477412      -2.10365868       2.14065289       1.97573805       3.11679816
27
Lattice="6.403228 0.0 0.0 0.0 6.403228 0.0 0.0 0.0 6.403228" Properties=species:S:1:pos:R:3:momenta:R:3:forces:R:3 virial="26.379653532115288 -2.8806012487978325 9.10033438939633 -2.8806012487978325 29.382052443831384 -5.3396463792146145 9.10033438939633 -5.3396463792146145 19.280274427293133" config_type=Amorphous_Bulk pbc="T T T"
C        6.94351554       0.18661377       4.65984723      -0.26652375       0.37331540       2.30003383      -0.79793555       0.05466825       0.66681927
C        0.61141794       0.42999975       1.97982122      -0.81846953       0.49414330       0.72664456       3.77169895       2.14963245       2.70256853
C        4.14980221       3.78678697       1.55821869       1.12582109      -0.11004115       1.08963933       1.23834157      -0.24406776       0.22551405
C        5.79399124       0.33576239       1.64002775       0.11767937       0.20875786      -1.83256677      -1.84314418      -1.67770922      -3.39418030
C        3.63395226       2.29796924       1.27835681       1.12537098      -1.74049391       2.81092668       1.14396179      -0.94566250       0.09430370
C        2.68419280       0.45351235       4.40446043      -0.40301726      -0.93127850      -0.74811594       1.24996150      -1.20565200       1.26651430
C        4.82955266       6.80090174       2.69508975      -0.25456618      -1.74315233       0.09698807       0.54770565      -2.40720606      -1.26237488
C        1.96856160       0.34690047       1.75070439      -2.73877621       1.71856979      -0.91956268      -3.45378208      -1.18829799      -1.65360475
C        2.74758818       3.37390477       1.61350692      -0.16074732      -3.19289605       0.86729293       0.31449839       0.94504344      -1.37109864
C        5.15986451       3.09095453       3.86960628      -0.36916854      -1.85855569      -1.17142286       2.21223593      -0.05650067      -1.45141661
C        5.52291375       5.70536088       0.64663637      -0.91603142      -0.08097964       0.04915267       1.66878569       3.82973766       0.87688482
C        3.79317977       1.35332597       2.63617227      -0.72544408       1.37710225       1.03188818      -0.67884386       1.11578059       0.03405738
C        4.91377907       4.56904318       0.61467880       0.20144168       0.55190305       0.56389410      -1.91380668      -2.23675132      -2.47534800
C        0.16260962       2.67278487       3.79148447      -0.18623730      -0.28773456      -1.82715833       0.21794835       2.15134001       0.93551254
C        1.74780818       3.75670723       2.36247562       2.13206834       1.33182086       0.50108746       3.16101599      -0.21118951      -3.76405811
C        2.42109870       0.40327662       0.30087985       2.29857987      -0.84909264      -0.34411003       1.08413720       2.60261226       1.23934376
C        5.56615305       5.17158102       5.79639192      -1.80294282      -0.30632754      -0.57997142      -1.06701350      -1.56641209       1.45634842
C        3.78332683       1.21246831       4.96769221      -0.23208724       0.72248362       0.05865176      -0.73824060       3.35386944       0.95808733
C        5.95126434       5.60416084       4.53338324       1.93425472       1.81570270      -0.16906655      -1.06080317       0.20292705      -1.27725685
C        5.03284211       5.47897537       3.31605657      -0.16899414       2.01070112      -0.76359341       0.50973564      -1.05345798       1.98024523
C        1.19288367       3.77554891       3.42745494      -0.25364292      -0.53188764      -0.91791070      -5.46079445      -2.23517299       4.60268450
C        4.25467472       2.01255862       3.91103413       1.92243190      -1.76830222      -0.26565554      -0.09249201      -0.07690985       0.95014203
C        4.79580208       4.16088189       2.87803747       0.00803245       2.12977708      -0.18014994      -0.12491560       0.90369648       1.66886532
C        1.82717498       0.02519549       5.42734286      -0.64036681       1.49198545       0.91834311      -1.36665523       0.57356095      -0.64818192
C        0.57030699       1.32801763       3.79562234       0.84982586      -2.01450994      -3.33080941      -0.72037196      -0.98045397      -1.55430758
C        3.43547691       1.51857258       6.37877472      -0.23401696       1.79295146       0.84290131      -0.90818501      -3.48715401       0.64331013
C        2.55470628       6.98696460       3.00821275      -1.54447379      -0.60396210       1.19264960       3.10695601       1.68973017      -1.44937348
27
Lattice="6.403228 0.0 0.0 0.0 6.403228 0.0 0.0 0.0 6.403228" Properties=species:S:1:pos:R:3:momenta:R:3:forces:R:3 virial="26.379653532115288 -2.8806012487978325 9.10033438939633 -2.8806012487978325 29.382052443831384 -5.3396463792146145 9.10033438939633 -5.3396463792146145 19.280274427293133" config_type=Amorphous_Bulk pbc="T T T"
C        6.82294314       0.20063222       4.54415602      -1.38517541       0.31848686      -0.18136612      -1.36518943      -0.29135752       0.57167566
C        0.46550823       0.64698400       2.16105832       1.11814433      -1.58991563       0.98413668      -5.49466848      -4.44335270      -8.44363785
C        4.57026613       3.46400228       1.55473134      -0.30408600      -2.72314205      -1.48977866      -0.24482933       2.59852695      -2.36822844
C        5.61682756       0.04689627       1.59797887       0.82883112      -1.14623232       1.95781304       3.05163670       1.60082340      -0.79581594
C        3.87598117       2.15850911       1.49869535       0.12655359       1.70228126       0.03248066      -0.69820809       1.46176791      -1.01752293
C        2.58386747       0.79672213       4.69740638      -0.32498546       0.24644988      -1.26207154      -1.44743013      -2.05227637      -3.75377274
C        4.51758264       6.58853668       2.44843403      -0.20931253       0.47408413       0.39738639      -0.60783088      -3.47830820       1.47500467
C        1.70185101       0.58875918       1.69885069      -1.39315383       1.14628589       1.29062291       3.48684573      -0.02628127       1.32343364
C        3.03831740       3.54803302       1.59525910       1.34464849      -0.23085352      -1.17665819       0.99121356      -0.13230683       0.77321613
C        5.34264657       3.00162544       3.95789240      -0.35964285       1.71303068       0.24495119       3.62698174      -0.81958365      -1.55643344
C        5.56904536       5.57665316       0.46956001       1.02669452       0.48180802       0.23370980      -1.11458445      -0.35597229       3.47602582
C        3.70375492       1.43231773       2.86000437      -1.81929253      -1.13995244       0.61298470       3.17624760      -0.55643678      -1.94546759
C        4.85781011       4.32191939       0.28152901       2.84993681      -0.74758911      -2.12677642       1.56503010       0.07868698       1.56520665
C        0.32791353       2.67746701       3.61795047       0.75068935      -0.48038596       1.85328683      -1.57079649      -1.61280978       0.71990746
C        2.26885536       3.83647234       2.65170279      -1.18311715       1.16700107      -0.04369090       1.00472689       0.73456156      -2.08896375
C        2.31849312       0.66250688       0.47546717      -0.71670878      -1.54926564      -0.06848759      -2.05599189       0.43036389      -1.51627946
C        5.44023796       5.12414615       5.62491760       0.12595349      -0.60276727       1.53847926      -0.79358912      -1.97189116       1.94788980
C        3.75914917       1.29635048       5.18558747      -0.98617512       0.09909417      -0.57819718       1.19425356       3.62176180       2.17175889
C        5.68537250       5.65025982       4.41102205       1.45710189      -1.01809085      -0.84313036       2.50276947       1.69080460      -0.67247546
C        4.87833088       5.25608782       3.25632618      -1.04337270       0.85898045      -0.88341847       0.74763680       2.60161114      -0.75257003
C        1.07755044       3.56872887       2.93045177       0.52320987       0.25732485       0.34062017      -1.37046444       0.01603829       2.12261677
C        4.43457897       1.99360495       4.16532644       1.57024355      -0.86821887       0.57912419      -2.55850172      -1.12544692      -0.54229063
C        5.16201557       3.93334224       2.83030388       0.79586977       1.67742014      -0.42821921      -3.16365147       1.94580567       0.02204232
C        1.57705363       0.38230666       5.55681116      -1.06470317       0.41128856      -0.33551352       0.08828717       0.22918028      -1.95659530
C        0.66637662       1.12527658       3.34856632      -1.12285334      -0.80885205       0.30977956       1.27051306       3.87595820       9.82138634
C        3.43047378       1.53983259       6.61865621      -0.44430362       1.88563746       0.87417212       0.53707242      -2.66218567       0.73513991
C        2.35563678       7.42075700       3.20332460      -0.16099429       0.46609226      -1.83223940      -0.75747812      -1.35768235       0.68474782
27
Lattice="6.403228 0.0 0.0 0.0 6.403228 0.0 0.0 0.0 6.403228" Properties=species:S:1:pos:R:3:momenta:R:3:forces:R:3 virial="26.379653532115288 -2.8806012487978325 9.10033438939633 -2.8806012487978325 29.382052443831384 -5.3396463792146145 9.10033438939633 -5.3396463792146145 19.280274427293133" config_type=Amorphous_Bulk pbc="T T T"
C        6.56874086       0.26970185       4.73988689      -0.60748779      -1.05068020       0.45966830       0.42740670       1.18197131      -0.30161557
C        0.43835491       0.83712038       2.20210377      -0.83484710       0.74923964      -0.89904567      -3.03314996      -2.04596877      -2.21744227
C        4.45232574       3.60770861       1.52965657      -0.60350531       0.56258893       0.70110915       0.05466819       0.68588758       1.29963160
C        5.79608047       0.05342958       1.46620212       1.53859811      -0.37853176       0.83538975       1.97047877       2.50315380       2.71564102
C        3.84605658       2.23139570       1.37820886      -0.89207229      -0.09642645       0.39678977      -0.32553738       0.40460238      -0.90785766
C        2.44581086       0.73541117       4.40502905       1.20955287      -0.19049569       0.80618978       0.93398726       0.40958753       0.15389961
C        4.68062962       6.53397016       2.40651154       1.32496124       2.09899050      -1.70003197       2.40594959      -3.80651736      -0.06005824
C        1.73990344       0.71725910       1.76018277       1.57745268       0.86482185      -2.11065100       0.84412903      -0.96680140       1.97502875
C        2.94780265       3.54543559       1.30137553      -0.28082481       0.62797887      -1.57545299      -0.39624849       1.07754898       1.99161649
C        5.29769369       3.06911694       3.89581062      -1.70377125       1.93043451       1.60386051      -0.24961409      -0.25780708      -1.03591442
C        6.20667186       5.30477822       0.77255519       2.25616316      -1.88993615       3.20970434      -0.60662544       0.92009425      -1.05867267
C        3.85474137       1.24295348       2.57064703      -1.37315980      -2.23314974       0.15167206      -0.87345779       1.44660425       1.78473425
C        5.57732640       4.11382910       0.76172379      -0.70962674       3.03115960       0.19425193      -1.81467652      -0.64296710      -3.24151921
C        0.35452782       2.59509188       3.70659910      -0.41036838      -0.11416316       1.55835095      -4.04205179       3.69778490       2.07331944
C        1.95086149       3.79342044       2.21554982       0.91942645      -1.81642324       0.51585653      -0.49915195      -1.38921142       2.64241266