72
Lattice="3.73972251 -6.47739002 0.0 3.73972251 6.47739002 0.0 0.0 0.0 13.55673629" Properties=species:S:1:pos:R:3:momenta:R:3:forces:R:3 virial="-52.19425634320792 -1.7902606530774028 1.0785041542489338 -1.7902606530774028 -54.34864107265846 0.23658943927722223 1.0785041542489338 0.23658943927722223 5.523593140712213" config_type=Graphite pbc="T T T"
C        1.03147000      -1.73322000       1.57812000      -0.60101988       0.14392007      -1.11629126       0.84137136      -0.05548820      -1.78079510
C        3.55934000      -5.19421000       5.25758000      -0.39071390      -0.22472946       1.01686026      -0.71438736       0.02641800      -0.21793826
C        1.04915000       1.12553000       1.45674000      -0.25466994       0.71270543      -0.22916724      -0.82379824       0.95547187       0.77388304
C        6.02653000       2.00804000       5.26509000       0.01451779      -0.24290182      -0.31360893       0.75306660      -1.48790073       0.31691664
C        3.52512000      -6.06942000       1.46506000       0.10603238       0.11657204       0.53874842       0.90055579       0.54155147      -0.80640364
C        4.85161000       3.15337000      12.16948000      -1.13393174      -0.06773299      -0.77573643      -0.47065458      -0.66642857      -2.70385838
C        2.17726000      -3.44090000       8.30183000      -0.17115174      -0.10243818      -0.12292475      -0.55986518      -1.24340892       1.87244809
C        3.42145000      -4.17538000       8.34764000       0.46058946      -0.26472800       0.54574218       0.18878737       0.39279518      -1.07479489
C        3.61088000       3.81346000      11.88441000       0.12265538       0.27617841       0.12427562      -1.55985045       1.19126964       2.67893147
C        4.79050000       1.23259000       5.30547000       0.31136614       0.26313292      -0.26440170       0.85557365       1.72294033      -0.70195180
C        6.04586000       1.12629000       1.34072000       0.09604680      -0.26708563       0.06567673      -1.30549312       1.38079715       2.22843266
C        3.57075000       2.00306000       5.29605000       0.19029138       1.16332038       0.57595018      -0.27635539      -0.11367838      -0.05333260
C        4.77672000       0.42581000       1.49512000       0.07768244       0.44103187       0.38997894       0.70413756      -0.06499703      -0.54679513
C        3.57897000       1.01582000      12.15195000       0.49187659      -0.19633861      -0.59228144       0.80575442      -1.38996351      -0.68768013
C        4.68146000       0.82559000       8.29971000       0.36183893       0.53521750      -0.43571610       0.31147897       1.56044769       0.77334201
C        4.65775000       2.29879000       8.37570000       0.43740477      -0.35882431       1.12667486       0.36453533      -0.43511993      -1.17727113
C        2.35165000       1.70615000      12.13877000       0.06801279      -1.34292460       0.47435701      -1.32782686      -0.77148032      -0.25769037
C        2.34683000      -2.64767000      12.01524000      -0.00126734       0.66055112      -0.40016854       0.81969059       1.02517819       1.54659307
C        3.59247000      -3.39614000      12.11962000      -0.07192353      -0.65192841      -0.52790186       0.50364834       1.26588356      -1.85894656
C        4.83442000       1.73074000      12.13356000       0.74325690      -0.49899558      -0.15365089       0.51949561      -1.76506269       0.21256131
C        5.93681000       0.14196000       8.33839000       0.37651671      -0.82323763       0.70840679      -0.27293175      -0.30971712      -0.70901579
C        6.07124000      -0.90483000       5.29772000      -0.37949212      -0.95939244      -0.54624697      -0.43082660       0.82758319      -1.38160336
C        3.54076000       5.46006000       1.36522000       0.02427251       0.97075697       0.31146701      -0.25780195      -0.84448135       2.45543861
C        4.82493000      -0.18528000       5.26753000      -0.39880760       0.00199438      -0.27110580      -0.61229777      -0.58677381       0.66131061
C        6.03908000      -1.74736000       1.43172000      -0.61588514       0.24512918      -0.18698885      -1.30891216       0.52555043      -0.95619619
C        4.66568000      -3.43092000       8.25255000       0.48899019      -0.35611473       0.15752023      -0.39391172      -2.11458850       0.72805893
C        4.85562000      -1.20303000      12.13467000       0.05827611      -0.68487223       0.82074838      -1.32322466      -0.21322602      -2.13253689
C        3.57116000      -0.45057000      12.10627000       0.20007182       0.35061635       0.48155990       1.02773333      -0.02013700       0.27049050
C        4.64303000      -2.03601000       8.24357000       0.40064144      -0.28540096      -0.69317848       1.29158998       1.38933325       0.64713120
C        4.84729000      -3.05556000       5.28387000      -0.51537013      -1.01333929      -0.06955600      -1.68454802       0.21264711      -0.71682131
C        2.25502000       3.28916000       1.31355000      -0.19132697      -0.53543845       0.14315587       1.10185599       0.77315396       2.39673924
C        3.59185000      -2.32957000       5.28940000       0.25422843      -0.10651481       0.33762376      -0.80050361      -1.03613997       0.47972736
C        4.76112000      -3.89819000       1.39580000       0.07892715       0.79840998       0.64713200      -0.32466927      -0.67364883      -0.07934067
C        5.90952000      -1.30213000       8.26923000       0.06090266       0.48633742      -1.16763139      -0.72240770       0.52328092       0.69430423
C        3.45883000       0.10441000       8.32115000      -0.74429760      -0.29620818       0.40373862      -1.08277285       1.25544989      -0.32083407
C        3.56192000      -0.91643000       5.35763000      -0.29536138       0.88196516       0.35409640       1.09434259       0.92702866      -1.62501478
C        4.76275000      -0.99502000       1.43501000      -0.32876999      -1.01857437       0.11350041       1.76617181      -0.75445557       0.59026337
C        3.40789000       3.01007000       8.27952000       0.31202728      -0.45383092       0.30741380       0.06710540       0.95323366       0.99717259
C        4.86444000      -2.66769000      11.95291000       0.05730168       0.49670967       0.19367776      -2.69236779       1.73087251       1.76579714
C        2.16414000       2.30196000       8.25698000       0.04605023       0.62841827      -0.04138183       0.59968054      -0.01682769       0.10877400
C        2.31443000       1.31878000       5.30359000      -0.67271799       0.23476468      -1.12066119       0.63580966      -2.48505139      -0.72107112
C        3.52985000       1.10780000       1.49056000       0.21442471      -0.12019669      -0.26866857       0.13905212       2.68077612       0.89520121
C        4.80645000      -4.49101000       5.25740000       1.03739188       0.15961902      -0.52219637       0.26387620       0.56297767       0.09539665
C        2.31383000       3.12342000      12.06207000      -0.30148656       0.26478503      -0.67198741       2.98066235      -0.47485113      -1.46339250
C        2.29700000       0.43574000       1.57036000       0.06425216      -0.10722572       0.18808933      -0.47208661      -0.84052521      -0.77371311
C        2.20191000       0.85545000       8.25849000      -0.07044347       0.33212791      -0.32633923      -0.00268972      -0.22526367       1.61790729
C        3.62283000      -4.82616000      12.09752000      -0.11932562       0.72780222       0.00418586      -2.23962951       0.69755870       0.51046264
C        0.97503000       0.14184000       8.43447000      -0.70786493       0.42610005      -0.05204018      -1.22825921      -0.12854907      -2.20626044
C        1.08077000      -0.86717000       5.34894000      -0.28604769      -0.87195553       0.04514572       0.26469740      -0.23494297      -2.58602953
C        2.30679000      -0.99131000       1.49585000      -0.04196359       0.73246777      -0.83696443      -1.39672267      -0.83342648       1.04844129
C        7.30159000      -0.15088000       5.23543000       0.94461769       0.06914907       0.03138532       0.34261924      -0.49457198       0.92178226
C        1.09957000       0.95987000      12.18754000       0.69851422      -0.35993800       0.39399842       0.76923543      -1.03034413      -1.99413848
C        3.50054000       2.59477000       1.50781000      -0.31867578      -0.44146333      -0.54523740       0.60069358      -1.60570800      -0.94275415
C        6.04873000      -2.33507000       5.19583000      -1.27355307       0.60155488       0.68074885       1.80921066       0.00222695       1.29137504
C        4.76517000       3.28608000       1.48794000       0.64051704       0.34041681      -0.01547254      -0.82047826       1.57095218       0.68604660
C        2.34459000      -0.18061000       5.25863000      -0.51707643      -0.44024467       0.61418571      -1.10005307       1.51535189       1.22996521
C        3.53948000      -1.69480000       1.44696000       0.43501245      -0.46570337       0.20942978      -0.44245487      -1.82329762       0.06843787
C        2.32285000      -1.17052000      12.11595000       0.63735363      -0.36575632       0.50674773       0.63018918      -1.31445241      -1.76814175
C        3.42519000      -1.31180000       8.31236000      -0.58921470       0.12586409      -0.81405277      -0.75300109      -0.44541842       0.95532155
C        1.06699000      -0.49455000      11.99509000      -0.34202901       0.12179387      -0.29900852       0.76572299       1.11640573       1.67242575
C        2.16508000      -2.02585000       8.47808000       0.35563830       0.76005306       0.45418452       0.69679701       0.23213050      -2.28058910
C        2.31344000      -3.04861000       5.32982000       0.49135018       0.32282596       0.15359534       0.49660578       0.82318723      -1.77914178
C        3.51891000      -3.17247000       1.34306000       1.61981402      -0.55831221      -0.13879541      -0.07636791       0.99464983       1.51202035
C        4.83387000       4.17442000       5.12874000       0.06976201       0.00314889       0.60044300      -0.62460530      -0.34452760       3.02189589
C        2.26301000      -3.86670000       1.43208000      -0.10774149      -1.01040220       0.25639911       1.33836842      -2.09346342      -0.18985447
C        3.56184000       5.26185000      12.02559000       0.17925272      -0.23837919      -0.21899083       1.77850437      -0.66696149      -1.49878812
C        0.93956000      -1.31160000       8.33640000       0.23961277       0.09787299       0.05949536      -0.83582014       0.93007958       1.90344214
C        6.09968000      -0.49767000      12.05043000      -0.66362357      -0.11849389      -0.59424571      -1.96400666       1.07013226       0.56170338
C        3.38529000       4.49150000       8.36259000      -0.13688604       0.22173842       0.33486656       1.84365797      -2.00215197      -0.94472361
C        3.58716000       3.44361000       5.28613000      -0.51524426       0.41043903       0.20225546      -0.22031637       0.01923089      -1.67004120
C        3.44024000      -5.61439000       8.27667000      -0.58818307       0.22871460      -0.14957448       0.43731660      -0.17512421       1.86706305
C        6.06916000       0.95110000      12.16803000      -0.12122546       0.49541727      -0.09128771       0.81230348       0.38560879      -1.44974327
72
Lattice="3.73972251 -6.47739002 0.0 3.73972251 6.47739002 0.0 0.0 0.0 13.55673629" Properties=species:S:1:pos:R:3:momenta:R:3:forces:R:3 virial="-52.19425634320792 -1.7902606530774028 1.0785041542489338 -1.7902606530774028 -54.34864107265846 0.23658943927722223 1.0785041542489338 0.23658943927722223 5.523593140712213" config_type=Graphite pbc="T T T"
C        1.11438014      -1.74760809       1.95104633       0.60227917      -0.11803735       0.41032708      -1.86318874       0.41808805       1.12949228
C        3.46427438      -5.16702837       5.02288106      -0.93720577       0.30512122      -0.04716198       1.60207438      -0.86114275       0.29286307
C        1.08783556       1.12059716       1.89194862      -0.30048407      -0.08151422       1.50356886      -0.78129733      -0.01578943       0.02557035
C        5.95959206       2.00125883       5.01631781      -0.64086218      -0.33276957      -1.10357636       0.51383013      -0.18045461       0.49448177
C        3.56578453      -6.08282882       1.86595847       1.10455016       0.58596232       0.50806670       0.39631912       0.81225789       0.83495480
C        4.83115063       3.06463792      11.47988862      -0.35603012       0.46818295      -0.08614373       2.08409095      -0.32640892       2.63084435
C        2.18691351      -3.41130700       8.65261735       0.27445059      -0.14938434       0.60543304       0.49546286      -0.25628957      -1.87243891
C        3.44271115      -4.14002026       8.51695064      -0.08606777       0.61441978      -0.13698175      -0.64729935       0.20528890       1.12602162
C        3.62833134       3.78707000      11.54119312       0.00456460      -1.02916867      -0.90289290      -0.09758455       0.01599672      -0.63028157
C        4.73945286       1.23620001       5.06659995      -0.22566157      -0.09800820       0.34681489      -0.22626922       1.26205945       0.39909971
C        6.05233261       1.15301608       1.91023142      -0.23983095      -0.24522138       0.52617144       0.76340091      -0.46882409      -0.74335051
C        3.49751775       1.96859656       5.09024413      -0.56273536       0.77115084      -0.94630108       0.27596393       0.38275945      -0.80178541
C        4.82147249       0.43985606       1.90774097       0.49803438       0.11518477       1.39237076      -0.60737574      -0.09952521       0.58021086
C        3.57227592       0.94423455      11.66751093      -0.38913220       0.93651031       0.97146483       0.59009469      -1.50546157       0.33185619
C        4.68073127       0.90697161       8.53924687       0.33481083      -0.34787921       0.04807274       0.49080238      -0.29651386      -0.15306851
C        4.66961822       2.36210417       8.56712060      -0.13999220      -0.39836409       0.36361230       0.45905796      -0.96724111       0.23874141
C        2.33606858       1.66904969      11.66617405      -0.10649004       0.51534088      -0.61096636       0.90636468      -0.21634629      -1.32861876
C        2.37704457      -2.68291899      11.61070072       0.39151396       0.24281803       0.26728628      -1.08997393      -0.76429790      -1.00245070
C        3.61857191      -3.43183531      11.56731837      -0.07927343      -0.25862493      -0.40136351      -0.27617234       2.14005828       1.07242489
C        4.83380139       1.62613871      11.70672414       0.37297935      -0.05924832      -1.15640030       0.05206895       0.84670287      -1.60798645
C        5.93737561       0.17726685       8.54867971      -0.13303187      -0.00211187      -0.24476002      -0.18135385       0.93099821       0.25069499
C        6.01289490      -0.89073636       5.05892985       0.63689852      -0.83244026       0.13566857      -0.47593579       0.34009799       0.42137930
C        3.59271026       5.44085936       1.99734916      -0.93953382      -0.58085995       0.31361816      -0.66164136       0.47550148      -1.92263031
C        4.75053197      -0.18070019       5.14392014      -0.14010990      -1.57425018      -1.15253590       0.04826108      -0.09098031      -1.08803296
C        6.07171412      -1.73009919       1.82592550      -0.28150416       0.56967516       0.34237145       0.01751046      -0.35415024       1.69522214
C        4.67384785      -3.40052418       8.54097342      -0.55118774       0.08218656      -1.16645455       0.52180248      -0.96553421      -1.21412706
C        4.86961578      -1.25811336      11.52194720      -0.09778012       0.19103919       0.81793422      -0.91777039       1.90315914       1.31728005
C        3.58314543      -0.53200971      11.62744715      -0.01688969       0.55891444      -0.40495756       0.82081848       0.61348838      -0.23272373
C        4.68069183      -1.97856926       8.50514827      -0.41125820       0.11059618      -0.22086157       0.38443020       0.31386569       0.44906962
C        4.75127062      -3.01516078       5.05283407      -0.33183540      -0.06955893       0.42991829       0.35342374      -1.34557557       0.52287596
C        2.32528800       3.30853918       1.94339737       0.42457852      -0.32578772       0.14959353      -0.72209924      -0.95049626      -1.43241954
C        3.51092512      -2.33202625       5.06924062      -0.15684966      -0.92412183       0.09094054      -1.00694203       0.84838277      -0.32820565
C        4.80362352      -3.91703546       1.83991863      -0.50019084      -0.66055159       0.99263624       0.65033281       1.32554078       0.59440857
C        5.92755759      -1.25056137       8.57619522      -0.67309944       0.14470249      -1.42893216      -0.11769381      -0.29043880      -1.13417053
C        3.45553253       0.14846864       8.53350988       0.19752469       0.19972903      -0.25910850      -0.62009931       1.88236570       0.44236383
C        3.49353842      -0.86740671       5.03894001       0.07712852       0.21636051       0.10678007       0.37252337      -1.28061283       1.38251114
C        4.81614538      -1.00310791       1.88980807       0.61762872       0.09109752       1.00603194       0.68914920       0.26289257      -0.31802124
C        3.42179002       3.04441790       8.58007783      -0.68841468       0.85784888      -0.36505171      -0.23143375       1.33541012      -1.32990146
C        4.86120361      -2.66347930      11.57701541       0.69496475      -0.57889497      -0.60052749       0.56494462      -1.46144128      -0.79317772
C        2.17947138       2.33966085       8.45739461      -0.17917007      -0.03076971       0.36295361       0.00424504      -0.54407781       1.53136849
C        2.25148788       1.27657409       5.08933271       0.20539223      -0.04181350       0.54835709      -0.30088484      -0.51477551       0.48782539
C        3.55911759       1.16414866       2.00072207      -0.30570550      -0.12109385       0.43632357       0.59392148      -2.11466789      -0.93248177
C        4.75146285      -4.47710202       5.09005334       0.25785450       0.16665830      -1.65835119      -0.93262398       0.63832271      -0.56367660
C        2.39406812       3.09835386      11.47805362       0.45505797       0.07052189      -0.16079940      -1.91615891      -0.33306816       2.11864352
C        2.32995825       0.39913458       1.98712056       0.31235024       0.25594921       0.92116976      -0.46014982       1.15644979      -0.02884883
C        2.18863368       0.88284079       8.61595786       0.36535250      -0.56799245      -0.35402222       1.00333059       0.40205830      -1.87156248
C        3.59199989      -4.84147956      11.63037406      -0.18945164      -0.11067753      -0.80072659       0.87041378      -0.04598247      -0.62862897
C        0.97707852       0.16259718       8.55716160       0.30682943       0.21381989      -0.76279716      -1.43462098      -0.04905961       0.99800485
C        0.99201118      -0.87114673       4.98474981      -0.13042378       0.24588667      -0.13294300       0.27455562      -0.40473068       1.57158864
C        2.31402061      -1.02283830       2.05663543       0.54653740       0.46016792      -0.24300492       1.61906242       0.08355257      -1.54263234
C        7.24006593      -0.14258726       5.02225108      -0.15641791       0.77824516      -0.11723745      -0.35530555       0.01900758       0.02390134
C        1.11237932       0.93641045      11.55393610       0.33312498      -0.36489537       1.10722200      -1.15662336       0.07829288       1.38242173
C        3.56335574       2.55180502       1.91689480      -1.08929083      -0.30624580       0.65283600      -0.06576318       2.63940883       1.10181069
C        6.00507904      -2.31755580       5.08124998       0.01635774       0.32608522      -0.82638403       0.29757786      -0.39593157      -1.07472968
C        4.80512935       3.31936650       2.02330744      -0.31772049       0.16071049       0.45818067       0.68005478      -1.87511110      -1.89037848
C        2.25242336      -0.17321076       5.12263032      -0.32846550       0.33775872      -0.31052096      -0.45039427       0.58529484      -1.07147646
C        3.58208525      -1.71097673       1.90746471       0.42346782       0.29770799       0.93263090      -0.56950688      -0.50143135       0.43583614
C        2.34858061      -1.24931284      11.56080501       0.14877793      -0.55754666       0.14697607      -0.08725776       0.77778512       1.01914907
C        3.45205161      -1.25958721       8.57375653       0.69744970      -0.47086112      -0.90174844       0.04353423      -0.44235268      -0.87879646
C        1.07071619      -0.48782878      11.58557865      -0.63619983      -0.14095737      -0.19796620       2.80083346      -1.59722769      -0.27334851
C        2.21640768      -1.97022032       8.56388034       0.07418693      -0.20562311      -0.44958663      -0.84673488      -0.98131794       0.79623449
C        2.25055627      -3.04795098       5.04316949       1.13393309       0.93471416       0.34445606      -0.70247108       0.62235242       0.33593592
C        3.56586912      -3.14023260       1.85923133      -0.54795897       0.12723270      -0.07928345       0.05477837      -1.59025443      -0.07867977
C        4.70871887       4.15036162       5.08372327      -0.26737725      -0.32747707       0.47457919       1.83153534       0.33941618      -1.41504574
C        2.31117201      -3.88603081       1.87307275       0.86996134      -0.04983009       0.85774952       0.27575803       0.64623934       0.85351700
C        3.65450681       5.19924710      11.50427222       0.10695876       0.50059557      -0.70473187      -2.64047217       2.71642566       1.07822990
C        0.96630576      -1.28918186       8.65983566      -0.64732579       0.07864853       0.61483208      -0.78608900       1.10361469      -1.92785335
C        6.12001986      -0.50548261      11.56731163      -0.13955852      -0.42665436      -0.06661930       0.08380098      -1.48450756      -0.06684121
C        3.41718936       4.51474656       8.53598126       0.18748977      -0.11830986      -0.38736945       1.20389450      -1.24936628       0.84012246
C        3.51250502       3.41381861       4.93843654       0.10798943       0.23709694      -0.25601682      -1.12567747       0.19663699       2.27930450
C        3.45033741      -5.57580197       8.62132632       1.11256698       0.01213474       0.26463414       0.21808721      -0.59071988      -1.57237864
C        6.10007205       0.93164486      11.61561720       0.02697183      -0.27322971       0.19350392      -0.55324525      -0.90766448       0.66448927
72
Lattice="3.73972251 -6.47739002 0.0 3.73972251 6.47739002 0.0 0.0 0.0 13.55673629" Properties=species:S:1:pos:R:3:momenta:R:3:forces:R:3 virial="-52.19425634320792 -1.7902606530774028 1.0785041542489338 -1.7902606530774028 -54.34864107265846 0.23658943927722223 1.0785041542489338 0.23658943927722223 5.523593140712213" config_type=Graphite pbc="T T T"
C        1.11061618      -1.76215686       1.97827106      -0.26139675      -0.07222598      -0.49672356       0.52233148       0.20758361      -0.85079944
C        3.43212140      -5.21530760       5.13779990      -0.21106007       0.45066767      -2.66790271       0.66097182       1.55122292      -0.11156467
C        1.13070877       1.10521283       1.86068730      -0.13073281      -0.10630099       0.26164189       0.03216521       1.30198824       0.58944249
C        5.93996082       2.01111863       5.13397574      -0.64927023      -0.54020710       0.45986920       0.22463252       0.51024240       0.08561723
C        3.62436809      -6.06606771       1.88735340       0.26005893      -0.99029281      -0.31732974      -1.04534316      -0.38420811      -0.10091503
C        4.87542046       3.10599422      11.77059374      -0.37542216      -0.71715124      -0.76894197      -0.28923336      -1.41043127      -0.17551620
C        2.21942227      -3.41280431       8.30114730      -0.07156758       0.49132066       1.54889619      -1.44763684      -0.84093165       0.23551542
C        3.42875865      -4.14127374       8.32114623       0.04444472       0.29947933       0.67127113       1.22786677      -0.30493689      -0.98671830
C        3.63298718       3.77854288      11.75464605       0.56140581      -0.10316124      -0.46199314      -1.06915152       2.37814355      -0.11599916
C        4.69647132       1.32399253       5.16748949      -0.24329189      -0.23910306      -1.83861887      -0.66577232       0.50911754      -0.57449484
C        6.07610702       1.11324129       1.87348093      -0.16399632      -0.01969976       0.79458886       1.43836081       0.50882077       0.24653980
C        3.43411111       2.03760485       5.10900641       0.59017375      -0.05209495      -0.52771488      -0.20101500      -0.90804392       1.23351169
C        4.83976624       0.39097361       1.90367198      -0.38186396       0.49136288      -0.42215795       0.74489480      -0.83623403      -0.33660254
C        3.63668123       0.89179447      11.89602033      -0.35185651       0.17987310       0.39787047       0.47815794       1.06739962      -1.83048451
C        4.65024305       0.86772716       8.24228994      -0.01277170       0.18984278       1.75031968       0.70499724       1.12376535       0.88099617
C        4.70663121       2.30963423       8.29641742       0.34885966      -0.15841468       1.00175522      -0.52831274       0.75974733      -0.47293597
C        2.40735199       1.63384237      11.73375765      -0.42018702       0.27644040       0.87321683      -0.60660207       0.02762393       1.60214126
C        2.36832171      -2.66593940      11.71969670      -0.85153028      -0.28431091       0.13449571       0.30475971      -0.16592987       0.53163201
C        3.59900250      -3.39811785      11.79714107       0.62626865      -0.47129132       0.27542648       1.79086471       1.00419784      -0.57861167
C        4.89276147       1.64578907      11.80551551      -0.33032474       0.50438571       1.04956006      -0.61366212      -0.17792772       0.83130336
C        5.88448124       0.15758856       8.29132203       0.13391676      -0.39051714      -0.20119416       1.56864572      -0.56425393      -0.37587360
C        5.88980592      -0.83892346       5.17604324      -0.02253227      -0.60978086      -0.90510172       0.56526238       0.42355141      -0.16724676
C        3.61668947       5.43760328       1.92464126       0.77439654       0.72324606      -0.74471159       0.22048184       0.77752471       0.14111036
C        4.67081108      -0.08683240       5.20085386      -0.05532669      -0.65600368       0.09204879      -0.30152264      -1.31526852       0.05000482
C        6.13257457      -1.74661595       1.89028599      -0.21451663      -0.09487871      -0.42947538      -1.05237198      -0.52073848      -0.49192232
C        4.69082179      -3.41212756       8.17628392       0.21796364       0.12456763       0.35349758      -0.17790550      -1.46714985       2.27788973
C        4.92553416      -1.22234546      11.74968148       0.45061417      -0.30937469      -1.04914788      -1.54479003      -1.13657415      -0.05740680
C        3.63367941      -0.54241753      11.78373763      -0.22190287       0.62709605       1.63689127       0.79502279       0.58999920       0.38778615
C        4.67105023      -2.00489404       8.29741141       0.21261315       0.25750489      -0.64066536       0.96437705       1.08223224      -1.35626948
C        4.65258288      -3.01367587       5.19939951       0.03988659      -0.78915179      -2.01843220       0.33160585      -0.02564125      -0.76038432
C        2.44269779       3.29068462       1.88164912      -0.55744265      -0.65423303       0.05236856      -2.81375813       0.05617582       0.31830812
C        3.40752523      -2.27557580       5.18512375       0.14893723       0.23672546      -0.20664571       0.79843456       0.11430061       0.20976786
C        4.88146836      -3.90638112       1.83000736       0.36088699       0.45100715      -0.79255938       0.53616405      -0.62635046       0.24111934
C        5.94097117      -1.29456823       8.22776253      -0.85433675       0.28738392       1.03993502      -0.63166589       0.51644599       1.49408722
C        3.40917141       0.18642168       8.27524972      -0.55334206      -0.33561452       0.07585191      -0.12642200      -0.88532579      -0.63171101
C        3.41864674      -0.81010214       5.26887863       0.38770802       0.66117436      -1.25964762       0.49955961      -1.58520973      -1.17243385
C        4.83969437      -1.06533118       1.80935866      -0.08302326       0.25777374       0.20271912       0.49065733       0.65298140       1.34643531
C        3.45519637       3.04570823       8.23119489      -0.78578390       0.33931835       1.07716330       0.58500379      -0.61164951       1.33512270
C        4.90042673      -2.69224259      11.75003306       0.78527200      -0.49451813       0.63980289      -2.35276914       1.60729468       0.27950585
C        2.21702599       2.33305665       8.29304119      -0.47092218       0.24909526       0.16284825      -1.48344231       0.11895068      -1.42708373
C        2.19210475       1.30014833       5.19066905      -0.54569436       0.11665464      -1.06345493       0.17293350      -0.31460470      -0.78172100