72
Lattice="3.73972251 -6.47739002 0.0 3.73972251 6.47739002 0.0 0.0 0.0 13.55673629" Properties=species:S:1:pos:R:3:forces:R:3 virial="-52.19425634320792 -1.7902606530774028 1.0785041542489338 -1.7902606530774028 -54.34864107265846 0.23658943927722223 1.0785041542489338 0.23658943927722223 5.523593140712213" config_type=Graphite pbc="T T T"
C        1.03661961      -1.73526186       1.57626668      -0.00714643       0.00235164      -0.02073784
C        3.57215938      -5.20524630       5.20287786       0.01009997       0.00426310      -0.03721111
C        1.03644972       1.14375392       1.57372372      -0.00086340       0.00542327       0.01859634
C        6.06511230       1.99140012       5.20185142       0.00540866       0.00996993       0.02592140
C        3.52979826      -6.05370353       1.57168698      -0.00825656       0.00787636       0.00118654
C        4.83480511       3.12162038      11.95230892       0.01065908      -0.00867864       0.01327254
C        2.17612845      -3.46044080       8.39434520      -0.00264911      -0.00517826       0.00777117
C        3.42303777      -4.17967978       8.39281317      -0.00544430      -0.01153380      -0.00118602
C        3.58819620       3.84140615      11.95789186       0.00591015      -0.00525848      -0.00910708
C        4.81883399       1.27199569       5.20225259       0.00458830       0.00337991      -0.02969998
C        6.02277294       1.14383052       1.57341732       0.00431705       0.00292650       0.01416647
C        3.57212894       1.99150063       5.20392578       0.00586496       0.00384300       0.01464835
C        4.77641731       0.42384470       1.56941864      -0.00580564       0.00493374      -0.00186653
C        3.58829552       0.96267213      11.95197277       0.00126000      -0.01273504      -0.03134730
C        4.66946488       0.85787500       8.39265988      -0.00619989      -0.00896869       0.04000451
C        4.66948155       2.29760137       8.39271734      -0.00289107      -0.00448768      -0.00490569
C        2.34150710       1.68246823      11.95409404       0.00700048      -0.01056743       0.03500563
C        2.34176318      -2.63581509      11.95753705      -0.00222759      -0.00842162      -0.00342805
C        3.58835743      -3.35605583      11.95791988      -0.00340850      -0.00314988      -0.02936181
C        4.83488112       1.68254085      11.95513784      -0.00205321      -0.00866035       0.02744251
C        5.91630458       0.13848504       8.39322679      -0.00416220      -0.00240661      -0.00944433
C        6.06562280      -0.88722173       5.20239913       0.00348230       0.01072308      -0.01431984
C        3.52967043       5.46195521       1.58037989      -0.00319873       0.00813404      -0.02941208
C        4.81871315      -0.16797790       5.20406729       0.00667810       0.01545947       0.01060860
C        6.02278450      -1.73540138       1.57710427       0.00356318       0.00502715      -0.02433908
C        4.66922560      -3.46034556       8.39424449       0.00053400      -0.00525095       0.03709029
C        4.83462483      -1.19686345      11.95609539       0.00736309      -0.00064212      -0.02067284
C        3.58820997      -0.47652137      11.95380481      -0.00175046      -0.01087783       0.03704827
C        4.66944145      -2.02049975       8.39403910      -0.00213123      -0.01410135      -0.02697858
C        4.81900627      -3.04621952       5.20489592       0.00759029       0.00641858      -0.03717552
C        2.28285934       3.30281088       1.57998364      -0.00083919       0.00596136      -0.01957460
C        3.57220696      -2.32702943       5.20314941       0.00425112       0.01350269       0.00772677
C        4.77608641      -3.89452157       1.57325772       0.00019691       0.01003766      -0.01336768
C        5.91565030      -1.30119920       8.39507456       0.00771505      -0.00860804       0.02702364
C        3.42309856       0.13838071       8.39142207      -0.00146233      -0.00292952      -0.00391466
C        3.57254314      -0.88719791       5.20137372      -0.00333537       0.00796735      -0.01330992
C        4.77641239      -1.01532949       1.57533217      -0.01007535       0.00567083       0.02080669
C        3.42257883       3.01710988       8.39495000       0.00068308      -0.01324475       0.02427965
C        4.83474208      -2.63600306      11.96142318       0.00546172      -0.00522704      -0.01152311
C        2.17631214       2.29762692       8.39409888      -0.00073325      -0.00702162      -0.01950683
C        2.32586887       1.27202447       5.20369290       0.00023994       0.01468479      -0.03518619
C        3.52965938       1.14385306       1.57244490      -0.00207231      -0.00196194       0.02275533
C        4.81862971      -4.48588367       5.20509134       0.00546965       0.00057914       0.01723782
C        2.34193816       3.12145797      11.95579861      -0.01517570      -0.00411535      -0.01284783
C        2.28312687       0.42377952       1.57056582      -0.00132835       0.00936927      -0.00796760
C        2.17641466       0.85780131       8.39374726      -0.00908343      -0.00368184       0.02100687
C        3.58813373      -4.79522528      11.95872884       0.00574210      -0.00254451       0.00998544
C        0.93004470       0.13847683       8.39210030      -0.00424586      -0.00572593       0.01437430
C        1.07933614      -0.88688168       5.19800773       0.00214461       0.00557027       0.01905464
C        2.28301820      -1.01527833       1.57632341       0.00289386       0.00355688       0.00242734
C        7.31185150      -0.16768439       5.20240795       0.00506710       0.00867545       0.01232207
C        1.09507795       0.96221436      11.95274717       0.00050568      -0.00078888      -0.01674341
C        3.52950630       2.58275914       1.57382093       0.00133097       0.01615333      -0.01541223
C        6.06556119      -2.32688495       5.20570827      -0.00548654       0.00640439      -0.00493090
C        4.77598275       3.30296960       1.57734077       0.00582154      -0.00008218       0.00624376
C        2.32572459      -0.16754753       5.20215711       0.00386958      -0.00107700       0.01023417
C        3.52972559      -1.73525171       1.57398786      -0.00070470       0.00795603      -0.02974308
C        2.34169941      -1.19668988      11.95100729       0.00516657      -0.00385499       0.00173765
C        3.42269265      -1.30135039       8.39270901      -0.00193216      -0.00280971       0.03032517
C        1.09499184      -0.47681857      11.95338795       0.00309942      -0.00903497       0.02882895
C        2.17644434      -2.02066023       8.39111291      -0.00921422      -0.00831014       0.01712077
C        2.32585845      -3.04617490       5.19875707       0.00006470       0.00415575       0.00660987
C        3.52952381      -3.17428036       1.57611015      -0.00109257      -0.00304602       0.01592240
C        4.81882042       4.15076023       5.20109913       0.00521840       0.00417569      -0.00428475
C        2.28303353      -3.89451045       1.57245598      -0.00395584       0.01368026      -0.02043810
C        3.58832146       5.28038202      11.95428219      -0.00487870       0.00542392      -0.00696675
C        0.92958165      -1.30121555       8.39501831      -0.00250246      -0.01157694      -0.00272950
C        6.08128378      -0.47693025      11.95850333       0.00257851      -0.00493171       0.01068743
C        3.42288823       4.45672011       8.39424007      -0.00489755      -0.00063055      -0.00736847
C        3.57255143       3.43129764       5.20149435       0.00351633       0.00420885      -0.00582734
C        3.42307045      -5.61946867       8.39507441      -0.01149900      -0.00849523       0.00789369
C        6.08143368       0.96228674      11.95589518      -0.00265316      -0.00784663      -0.03453038
