72
Lattice="3.73972251 -6.47739002 0.0 3.73972251 6.47739002 0.0 0.0 0.0 13.55673629" Properties=species:S:1:pos:R:3:momenta:R:3:energies:R:1:forces:R:3 virial="-52.19425634320792 -1.7902606530774028 1.0785041542489338 -1.7902606530774028 -54.34864107265846 0.23658943927722223 1.0785041542489338 0.23658943927722223 5.523593140712213" config_type=Graphite energy=-526.8105409892287 free_energy=-526.8105409892287 stress="-0.09764247095422453 -0.0050088767722784484 -0.0018477728307955768 -0.0050088767722784484 -0.1065778000513311 0.0042200977330725635 -0.0018477728307955768 0.0042200977330725635 0.007285706795258964" pbc="T T T"
C        1.03147000      -1.73322000       1.57812000       0.57582432      -0.62010672       0.90633987      -7.30648547       1.06063400       0.29257345      -1.87619706
C        3.55934000      -5.19421000       5.25758000       0.28589665      -0.91435059      -0.04605525      -7.39025582      -0.97917855      -0.49534648      -0.44634394
C        1.04915000       1.12553000       1.45674000       0.49224055      -0.51968440       0.06035772      -7.37630436      -1.65512581       2.36467566       0.71714688
C        6.02653000       2.00804000       5.26509000       1.26774959       0.34102503      -0.31637659      -7.32035723       3.02809737      -3.12771136       0.66014587
C        3.52512000      -6.06942000       1.46506000       0.22248558       0.19659776      -0.69035997      -7.35469718       2.47008384       0.25232876      -1.40869771
C        4.85161000       3.15337000      12.16948000       0.49323359       0.17667048      -0.57380298      -7.23836069      -1.07510794      -2.68919096      -2.38950026
C        2.17726000      -3.44090000       8.30183000       0.40056651       0.25989117       0.61383518      -7.31327642      -1.73676423      -2.21866928       1.96968773
C        3.42145000      -4.17538000       8.34764000      -0.07916609      -0.22806371      -0.21729683      -7.34016315       0.91471551       1.77215051      -1.41514201
C        3.61088000       3.81346000      11.88441000      -0.00347617       0.18016951      -0.07596432      -7.18708085      -3.35312507       3.56225896       2.65615593
C        4.79050000       1.23259000       5.30547000      -0.18848247       1.05639166       0.57510040      -7.32830600       2.43253037       5.23728918      -0.47643777
C        6.04586000       1.12629000       1.34072000       0.40175924      -0.21997382      -0.80244829      -7.30328009      -3.97194461       2.22759363       1.78884769
C        3.57075000       2.00306000       5.29605000      -1.20736414       0.23579294       0.34413169      -7.31870210      -1.62077722      -0.69271975       0.46354854
C        4.77672000       0.42581000       1.49512000       0.03554679      -0.28845823       0.72424212      -7.32073856       0.57072486      -2.17948876      -1.23546537
C        3.57897000       1.01582000      12.15195000      -0.30897005       0.26581802       0.83194558      -7.35789491       0.87128105      -1.66393289      -0.44115305
C        4.68146000       0.82559000       8.29971000      -0.52249427       0.59180495      -0.18171832      -7.34010746       1.00102794       2.62558022       1.03474319
C        4.65775000       2.29879000       8.37570000       0.73588145       0.01770044      -0.01660061      -7.36072676       0.82871626      -0.83074932      -1.47610296
C        2.35165000       1.70615000      12.13877000       0.14886816       1.77608287       1.09691882      -7.33083053      -2.89372350      -0.95546525       0.71997766
C        2.34683000      -2.64767000      12.01524000      -0.65427712      -0.21189657      -0.48893210      -7.29960786      -0.52210458       1.30843158       2.15214553
C        3.59247000      -3.39614000      12.11962000      -0.08431381       0.13688542      -0.01071077      -7.31018815       2.83134292       2.54017733      -2.16290283
C        4.83442000       1.73074000      12.13356000      -0.36299634      -0.19535106      -0.26337439      -7.34347859      -0.21475314      -3.27988866       1.20947182
C        5.93681000       0.14196000       8.33839000      -0.08724660      -0.52314847      -0.22020146      -7.34278826      -1.84671307      -1.69168191      -1.16916438
C        6.07124000      -0.90483000       5.29772000       0.49983898      -0.04025223       0.60828974      -7.34841609      -2.26853688       2.27562261      -1.23894305
C        3.54076000       5.46006000       1.36522000       0.13423550       0.38074646      -0.34511948      -7.31410101      -0.41121317      -1.49533457       1.99984867
C        4.82493000      -0.18528000       5.26753000      -0.48073786       0.75371559       0.02359095      -7.34378730      -2.75068159      -1.31666918       1.18521956
C        6.03908000      -1.74736000       1.43172000      -0.30658836      -0.34696827      -0.73594329      -7.31967555      -3.63094381       1.55250697      -1.53663645
C        4.66568000      -3.43092000       8.25255000      -0.04974480       1.06615562      -0.32813280      -7.33790354      -2.04523182      -4.60334891       0.48325549
C        4.85562000      -1.20303000      12.13467000      -0.07940962       0.53464164       0.63921738      -7.30679879      -0.96883846      -0.79094893      -1.86956830
C        3.57116000      -0.45057000      12.10627000       0.20597750       0.13086904       0.30159728      -7.38314289       1.40999941       0.31977696       0.88224964
C        4.64303000      -2.03601000       8.24357000       0.67735841      -1.15385117      -1.13810906      -7.35211995       3.09046765       2.62519920      -0.10898161
C        4.84729000      -3.05556000       5.28387000      -1.10459397       0.22107947       0.68702460      -7.33734030      -4.59756832       1.01284626      -0.65753701
C        2.25502000       3.28916000       1.31355000       0.64782532       0.15088746      -0.43367156      -7.31607881       2.93263236       1.40783845       1.65498565
C        3.59185000      -2.32957000       5.28940000       0.31984545       0.12914984       0.30794652      -7.33172939      -2.41718153      -1.70163699       1.08237152
C        4.76112000      -3.89819000       1.39580000      -0.48172332      -0.07025502      -0.12242267      -7.37244661       0.53331208      -0.48414840      -0.92143633
C        5.90952000      -1.30213000       8.26923000       0.29336387       0.87605608      -1.52152399      -7.32479071       0.13370395       1.84138810       0.58892627
C        3.45883000       0.10441000       8.32115000       0.85148864       0.24508080      -0.52727158      -7.35466345      -2.30209931       2.60495988      -0.85367427
C        3.56192000      -0.91643000       5.35763000       0.08014228      -0.35907691       0.38872903      -7.32349828       3.83642425       2.38185274      -1.26255689
C        4.76275000      -0.99502000       1.43501000      -0.16947537      -0.73375966      -0.51861865      -7.31451700       2.81630322      -1.14043925       0.74025685
C        3.40789000       3.01007000       8.27952000       1.05742979       0.18280015      -0.70345181      -7.31435247      -0.78357872       2.17399871       1.00273645
C        4.86444000      -2.66769000      11.95291000       0.22119889       0.61979880      -0.46510901      -7.24328091      -4.42294641       2.20777454       2.37968288
C        2.16414000       2.30196000       8.25698000       0.06610581       0.28707294      -0.61753375      -7.35717055       2.97374015       0.65932187      -0.53073872
C        2.31443000       1.31878000       5.30359000      -0.57040306      -0.09995975       0.77213394      -7.27099508       1.44314110      -6.34569045      -0.61756249
C        3.52985000       1.10780000       1.49056000       0.34566343       0.42278718       0.08909789      -7.28573537      -0.51367291       6.70124171       0.94318579
C        4.80645000      -4.49101000       5.25740000      -0.09149329       0.25944694       0.66709538      -7.34772160       2.11022161       3.44285424       0.38309871
C        2.31383000       3.12342000      12.06207000       0.55961329       0.48611619       0.32374833      -7.21260117       6.21163196      -1.79110425      -1.69206589
C        2.29700000       0.43574000       1.57036000       0.48876246      -0.15987808       0.40878930      -7.31019587      -0.17709360      -3.62491935      -0.94815307
C        2.20191000       0.85545000       8.25849000      -0.16387531      -0.30192522       0.61665200      -7.33162314      -1.35092497      -1.31215169       1.29235233
C        3.62283000      -4.82616000      12.09752000      -0.56760382       0.19376610       0.22430980      -7.25338064      -4.51546293       1.83250251       1.51894792
C        0.97503000       0.14184000       8.43447000      -0.43522741       0.76093418       0.44317302      -7.26793828      -2.71441240      -0.18897886      -2.32410739
C        1.08077000      -0.86717000       5.34894000      -1.42976544      -0.82185413      -0.11900430      -7.26301899       0.78539691      -1.61627206      -2.53429289
C        2.30679000      -0.99131000       1.49585000      -1.88903984      -1.19662646      -0.26883893      -7.32141221      -2.02888115      -0.75379938       1.30689500
C        7.30159000      -0.15088000       5.23543000       0.66269265      -0.56393598       0.24552969      -7.36439520       1.60051074      -1.64832032       1.27121703
C        1.09957000       0.95987000      12.18754000      -0.16604276      -1.04507185       0.07855932      -7.29424156      -0.48574693      -1.44512751      -1.59927778
C        3.50054000       2.59477000       1.50781000      -0.18309331       0.31056421       0.84530674      -7.29701773       1.65960519      -4.54151661      -1.32302968
C        6.04873000      -2.33507000       5.19583000      -0.07231377       0.52242149       1.09142715      -7.31913348       4.99796404      -0.08116776       1.28254280
C        4.76517000       3.28608000       1.48794000      -0.13702616       0.23655502      -0.12202027      -7.35330928      -0.72758956       4.67114775       1.04603735
C        2.34459000      -0.18061000       5.25863000      -0.44448657       0.36081677      -0.53084034      -7.28248248      -3.29371016       2.27143027       1.55596217
C        3.53948000      -1.69480000       1.44696000       0.08247831       0.90813663      -0.58382331      -7.34303494      -1.05249168      -2.79103028      -0.79547502
C        2.32285000      -1.17052000      12.11595000       0.91026728      -0.09285886       0.82071382      -7.30389400       0.96111766      -3.69347338      -1.69980087
C        3.42519000      -1.31180000       8.31236000      -0.45417885       0.18931146      -1.36523640      -7.34179867      -0.48805580      -1.10479408       0.97761651
C        1.06699000      -0.49455000      11.99509000       0.46880144      -1.44730979       0.10278676      -7.28179772       2.41312886       2.90374276       1.97487657
C        2.16508000      -2.02585000       8.47808000       0.22434343      -0.08816446      -0.24512436      -7.29874601       1.40852702      -0.17970072      -2.21799641
C        2.31344000      -3.04861000       5.32982000       0.17137792      -0.80966083       0.00335664      -7.30739984       0.17369176       1.61968875      -1.81260144
C        3.51891000      -3.17247000       1.34306000       0.19968573       0.18642155      -0.74534434      -7.35339516      -0.33302779       2.68834041       1.15997271
C        4.83387000       4.17442000       5.12874000       0.36397491      -0.10800066      -0.03352226      -7.24361116      -1.46566762      -1.07232407       3.01209639
C        2.26301000      -3.86670000       1.43208000       1.26442067       0.36231909      -0.80924699      -7.31384138       2.45868854      -5.14757019      -1.31208592
C        3.56184000       5.26185000      12.02559000       0.28845516      -0.27680244      -0.13690219      -7.28958816       4.26289553       0.33060988      -1.75919047
C        0.93956000      -1.31160000       8.33640000      -0.90225335      -0.30369845       0.08433856      -7.29847968      -0.96094244       3.29936802       1.99013618
C        6.09968000      -0.49767000      12.05043000      -0.78840452      -0.78070302       0.28356585      -7.30866864      -4.96926091       0.44359573       1.28388065
C        3.38529000       4.49150000       8.36259000      -0.65550966      -0.40448714      -0.24104077      -7.28963221       3.48048316      -5.52262723      -1.09931156
C        3.58716000       3.44361000       5.28613000      -0.40574965       0.43755629       0.19205691      -7.30268954      -1.01467626      -0.14372565      -1.84992711
C        3.44024000      -5.61439000       8.27667000      -0.14902347      -1.03466369       0.26187195      -7.36161653       0.39734112       0.05073550       1.85576516
C        6.06916000       0.95110000      12.16803000      -0.46884894      -0.48923960       0.89791401      -7.31770122       4.45967248       0.86026159      -1.16392916
72
Lattice="3.73972251 -6.47739002 0.0 3.73972251 6.47739002 0.0 0.0 0.0 13.55673629" Properties=species:S:1:pos:R:3:momenta:R:3:energies:R:1:forces:R:3 virial="-52.19425634320792 -1.7902606530774028 1.0785041542489338 -1.7902606530774028 -54.34864107265846 0.23658943927722223 1.0785041542489338 0.23658943927722223 5.523593140712213" config_type=Graphite energy=-529.720585523281 free_energy=-529.720585523281 stress="-0.10354663252276759 0.004735804289412405 -9.353559239440249e-06 0.004735804289412405 -0.09889659797299698 0.0014995048646755048 -9.353559239440249e-06 0.0014995048646755048 0.0012410433643358222" pbc="T T T"
C        1.10031201      -1.80555950       1.30268848      -0.50844989      -0.08169344      -0.18088683      -7.29315027       1.48229774       5.32480882      -0.57018668
C        3.46374706      -5.16506359       5.45625156      -0.21112124      -0.34103246       1.42760330      -7.37417139      -1.43003720      -1.19286463       0.22127167
C        1.08829214       1.12004754       1.31845034       0.04568527      -0.53386657      -1.16949715      -7.34375766       0.35169518      -3.08855065      -0.32354274
C        5.94531757       2.00853914       5.46059871       0.17028863      -1.09726068      -0.30220058      -7.37242779       1.86998648       0.64903687       0.07168397
C        3.60382463      -6.10880402       1.33669696       0.55215664       0.53009693       0.34806299      -7.37165213      -0.21967948       3.59680502       0.18920227
C        4.84784236       3.13629061      12.22038801       0.58900673      -0.27843891       0.81940612      -7.41330324      -2.28658655      -0.19982262       0.02750406
C        2.18498524      -3.45450632       8.03518899      -0.23275274       0.36759525      -0.73182977      -7.36861088       0.38408110      -0.04986687       0.19655094
C        3.43931330      -4.18813902       8.09549747       0.70604376       0.24945753      -0.10935766      -7.33960913       2.33135526       3.48499322       0.01526738
C        3.59142361       3.84705269      12.32886695       0.46603515       0.53763058       0.51848782      -7.34177888      -1.45909334      -0.64193705      -0.11976915
C        4.72296824       1.28089450       5.45275303       0.34204268       1.66274904       1.26952204      -7.37714580      -0.63411539       0.45717465      -0.10339646
C        6.10140912       1.12005232       1.35436771      -0.37747855      -0.29997192       0.06792167      -7.36317641      -0.13445558      -2.25220664      -0.06709364
C        3.48206751       2.01292886       5.45917279      -0.46390842      -0.77092667      -0.96818701      -7.37044901      -1.25895938       0.49352563       0.20465992
C        4.87213145       0.39562430       1.33792107      -0.05380105       0.14612333       0.22516755      -7.38150040      -2.46061432       0.09721908      -0.36830756
C        3.61583015       0.93198911      12.12762907      -0.97130128       0.21248142       1.27024242      -7.32752513      -3.40167482       3.84041137       0.28613464
C        4.70448829       0.88535518       8.10375109      -0.01261455       0.02366259      -1.00373218      -7.35510912       3.02934478      -1.78463735       0.33940419
C        4.69560689       2.31183219       8.08409635       0.15593747      -0.71871323      -0.04808289      -7.36653269      -1.29444568      -0.09467744      -0.28435170
C        2.34608401       1.67028337      12.20835926      -0.27749422       0.76803924      -1.49679113      -7.35031946       0.54411403      -0.97465486      -0.44829360
C        2.32900363      -2.61009173      12.22644143       0.66086272      -0.73303224       0.15344755      -7.31422683       3.90153400      -1.96565385       0.55225359
C        3.59394106      -3.34898723      12.25666074       0.69380141       0.51540367       1.11595138      -7.34033050      -3.30114560       0.69751927      -0.62899873
C        4.84517555       1.67259373      12.13876923       0.50126722      -0.29948688      -0.71243120      -7.34425272      -0.58714007      -0.24283796       0.26559901
C        5.99601556       0.17025781       8.13803258      -0.20825551      -0.05397525       0.48130291      -7.33746550      -3.39502025      -0.92077120      -0.61087601
C        5.98608170      -0.86691937       5.50832544      -0.26444072       0.71196054       0.39994491      -7.38075250      -2.54256052       0.10743594      -0.30611238
C        3.61225583       5.43010764       1.35149296      -0.29722621      -0.39097839      -0.08028343      -7.33920293       0.33761980      -5.45612061      -0.04514986
C        4.72617622      -0.17319888       5.44620815      -1.65499498       0.52170789      -0.50670150      -7.37364812       0.46358623       2.65630899       0.25498841
C        6.13129862      -1.81431048       1.35747056      -0.85366593       0.54806743       0.53354273      -7.24452901      -6.29615444       5.28636500       0.38070716
C        4.69383905      -3.43381827       8.21801347      -0.27313224      -0.83971260      -1.14184307      -7.36073708      -0.37820793      -3.06530229      -0.18875886
C        4.80556334      -1.18802248      12.23296204      -1.28790587       0.26187293       0.68820447      -7.34126255       0.44533712       0.19166831      -0.12092038
C        3.58648234      -0.47596754      12.18964107       0.21775935       0.72881498      -1.53647072      -7.34896057       1.56874276      -0.70106294       0.20193738
C        4.68894436      -2.01794440       8.25024528      -0.11649187       0.19558227       1.98056253      -7.35773071       0.54387560       2.08075246      -1.05229444
C        4.73765819      -3.04621445       5.47301830      -0.54752602       0.09804259       0.45845341      -7.36373313      -2.41643669       2.11789895       0.10772368
C        2.32707197       3.25555426       1.38738195       0.18705111      -0.57956012      -0.26206427      -7.32572809       3.32421186      -0.72024532      -0.07318528
C        3.46734461      -2.31875316       5.42668477      -0.43773309      -0.27255958      -0.56534502      -7.36125994       1.37437101       0.37222516       0.41028242
C        4.80888443      -3.94435557       1.41911017       0.20162733       0.28608323       0.55274310      -7.39145909       2.67993470       2.07565780      -0.01758861
C        5.96355152      -1.26527977       8.15137529       0.08180048       0.69437904      -0.58628906      -7.34109719       0.20514034      -1.39070979       0.96791066
C        3.48400606       0.13629226       8.13022057      -0.53873172       0.63726549       0.61740779      -7.37423154      -2.73458356       1.98379552      -0.34440743
C        3.48383748      -0.86716631       5.43144414       1.31524968       1.24211453       1.06365673      -7.39620277      -1.03043874      -1.57669263      -0.37462447
C        4.85608201      -1.05605268       1.36177394       1.13831926       0.17255437      -0.90983995      -7.34995944       1.28394704      -0.64043838      -0.25864314
C        3.44313077       3.02522116       8.10089578       0.30513290       0.01072563      -0.66719009      -7.36853126       0.61087740       1.68927664       0.52925492
C        4.81180226      -2.60823216      12.25763522      -0.27093415      -0.80931356       0.08091160      -7.37868648       2.16344326      -2.45053678       0.40795205
C        2.20650982       2.31031353       8.16058186      -0.20916069       0.15556170       0.59951387      -7.36293990       1.29383345       0.79928465       0.12983957
C        2.21823482       1.29340662       5.46256488      -0.01405770      -1.19964066       0.95042960      -7.36141083       1.04629869       0.28723751      -0.15416133
C        3.60178098       1.11343235       1.21723778       0.43422037       0.54890391      -1.54403537      -7.35964602      -0.41196310       0.16668886       0.47292310
C        4.70459303      -4.46042356       5.50328963      -0.29675866       1.16050070      -0.92910743      -7.37253804       2.21657514      -0.35202448      -0.38334128
C        2.33863529       3.14225082      12.31596429      -1.07379474       0.05337484       0.51366096      -7.38030009      -0.06063961      -2.01872862      -0.41318737
C        2.34690380       0.38793596       1.18443262       0.72342833       0.05497129       0.38643785      -7.37711577      -0.48964480       0.56489834       0.34134350
C        2.22988184       0.87203776       8.12878321       1.09855059      -0.65008772      -1.11534519      -7.36325889      -1.49312266       0.53949195      -0.08851142
C        3.56099934      -4.81130280      12.16771130      -0.08340989      -0.44345572      -0.77283889      -7.37301386       2.44358586      -0.18899110       0.25725053
C        0.98085909       0.18545912       8.02824462      -0.84030844       0.93722798      -1.05662576      -7.34218758      -0.10709649      -3.95700025      -0.31660411
C        0.98619523      -0.82355733       5.51120755       0.06037416      -0.90786019       0.59990800      -7.34422331       0.61341150      -3.01257713      -0.67694584
C        2.34031901      -1.06177683       1.21589878      -0.57731623      -0.15606305      -0.98545515      -7.36659199       1.47838578      -0.76067514       0.26338596
C        7.20291830      -0.11845844       5.47450820       0.00592720      -0.35091099      -0.25164566      -7.37596820       2.33079610      -0.97566581       0.31576825
C        1.09885731       0.91563367      12.13424015      -1.07863627      -0.75997707       0.73462761      -7.32614854      -2.18226889       3.58439167       0.51729186
C        3.57103627       2.56160034       1.30028882       0.25043784      -0.59283636       0.05600860      -7.33225079       2.07431768      -2.65946301      -0.50741102
C        5.98858239      -2.30445658       5.51950139       0.03388005       0.31408696      -0.67770761      -7.38517914       0.20615410       0.31241784      -0.07799783
C        4.84380889       3.27787277       1.25497649       0.49539625      -0.06174210      -1.38066012      -7.36016347      -1.36591420      -1.28850438       0.69908252
C        2.22772168      -0.13489185       5.41337257      -0.15646968       0.44485118      -0.11509629      -7.35700719      -0.22523707       1.02022036       0.63913736
C        3.59837650      -1.77707084       1.31069057      -0.50658875       0.52133079       1.20423400      -7.38017993       0.30296870       0.12945438       0.34549257
C        2.36564063      -1.18016169      12.28615593       0.66120858       0.05889043       0.79426466      -7.33726040      -4.23967670      -1.30912685      -0.62302585
C        3.45376237      -1.30247229       8.08869421      -0.47148754      -0.01189991      -0.38125770      -7.37110072       0.51810226       1.48240388       0.76699908
C        1.09256201      -0.49241281      12.23997550       1.21298740      -0.19941351      -0.30073782      -7.33177702       0.93453837       0.19415165       0.24538641
C        2.18529664      -1.99515058       8.02614446       0.67551177       0.26447441      -0.29477774      -7.38026165       1.35015214      -3.05058798      -0.33758862
C        2.21502285      -3.03089362       5.48945822      -0.10613768      -0.47444984       0.74295906      -7.38615460       0.77027470       0.92942014      -0.42419756
C        3.59449628      -3.21500850       1.42255640       0.18852660      -0.17143259      -0.36030850      -7.35161412      -1.28564429       0.04665322      -0.55409954
C        4.73787103       4.18624114       5.49479646       0.24426006      -0.79124929       1.04067899      -7.35991780      -2.61534495       0.99854966       0.43354343
C        2.35879863      -3.92169253       1.34014592       0.33645602      -0.74030684       0.98467486      -7.38800277      -0.65130827      -0.42234640       0.09307097
C        3.56630839       5.25102373      12.31113026      -0.24982887       1.27900858       0.78574259      -7.35306688       1.75162930       3.45008326      -0.26654978
C        0.95118045      -1.29185930       7.98948498       0.45433838       0.13668197      -0.62037676      -7.34089050       1.03143207       3.38802269       0.70971264
C        6.03894802      -0.47290332      12.25306475       0.01613615      -0.41198604      -0.96283679      -7.37839503       0.96139200      -1.92940824       0.28441074
C        3.45294788       4.49425939       8.14166842      -0.11912494      -0.76359478       0.68792548      -7.34968785       0.13472935      -2.36861439      -0.94939634
C        3.48055629       3.48426762       5.50393623       0.10658141       0.52997923       0.25017916      -7.34460089       1.26167599      -3.29162702      -0.15828195
C        3.48718597      -5.60128821       8.03132556       0.19080873      -0.28368955      -0.85145004      -7.34131091      -2.03044716       1.23414656       0.51784955
C        6.04351883       0.95490654      12.21244707       0.12394264      -0.51113577       1.17549798      -7.34221351       2.80390888       0.66453534      -0.42497540
72
Lattice="3.73972251 -6.47739002 0.0 3.73972251 6.47739002 0.0 0.0 0.0 13.55673629" Properties=species:S:1:pos:R:3:momenta:R:3:energies:R:1:forces:R:3 virial="-52.19425634320792 -1.7902606530774028 1.0785041542489338 -1.7902606530774028 -54.34864107265846 0.23658943927722223 1.0785041542489338 0.23658943927722223 5.523593140712213" config_type=Graphite energy=-528.8377788061447 free_energy=-528.8377788061447 stress="-0.09926816231054998 -0.0015846542165810404 0.001988117208182724 -0.0015846542165810404 -0.10158162172431615 0.000606989104245182 0.001988117208182724 0.000606989104245182 0.004168538137699096" pbc="T T T"
C        1.15019622      -1.81526523       1.20506135       0.38835742       0.05008918      -0.16201551      -7.32286240       4.02473842       1.27934570       1.42412296
C        3.37181729      -5.16492416       5.63900934      -0.11548747      -0.29567916       0.69565656      -7.36487408       0.42600033       2.77448163       0.47021864
C        1.14989604       1.04879096       1.21159118      -0.10775078       0.03297017      -0.09951729      -7.36420319       2.02093956       2.15031224      -0.73084863
C        5.86265645       2.03407085       5.67860408       0.77711882       0.62631472      -0.54179805      -7.36692531      -0.38393215       1.05961334      -0.79023908
C        3.66339022      -6.13682108       1.14655695       0.45455446      -0.17196549      -0.13909378      -7.36168557      -1.46049766      -0.32976828       1.48419300
C        4.83267431       3.12122520      12.30749950      -0.35089320      -0.21851420       0.12735012      -7.33986605      -0.59888147       0.32804248       1.34362796
C        2.20511810      -3.42270809       8.04780777      -1.29558991       0.27131711      -0.35228255      -7.32239281       3.47538246      -2.33043734      -1.33605439
C        3.47314241      -4.14035906       7.91614629       0.92130964       0.35663552       0.46414622      -7.33530906       0.44116547       0.38659515       1.05232309
C        3.56556272       3.84291582      12.33964584       0.01327100      -0.27688236      -0.57574331      -7.35447347       0.12551112      -1.29456000      -1.92070476
C        4.61374548       1.32867893       5.66506853       0.06091618       0.30648453       0.51875032      -7.33532464       2.13276075      -3.62874583       0.45412598
C        6.13709235       1.05655828       1.24987324       0.35115314       0.10437498      -0.65712715      -7.34275353       0.95475397       1.28791451      -1.52095202
C        3.41070409       2.01486286       5.63170504      -1.56314750       0.00881036       0.09275827      -7.32876385      -2.36356056       2.95561578      -0.62071825
C        4.90928954       0.34958861       1.16975934      -0.25647396      -0.30300274      -0.04007321      -7.33362622       0.09737288       0.36584467       1.24370332
C        3.56514503       0.97402931      12.45760808      -0.17356529       0.88369786       1.21997712      -7.37667387       0.91690200       0.22224437       0.15059897
C        4.73045176       0.88361436       7.91136510       0.55661774      -0.23721208      -0.66601507      -7.37358917       2.28177793      -0.60512055      -0.24236262
C        4.73659297       2.30742391       7.92204877       0.18150422      -0.27880053       0.46574112      -7.33635143      -3.17056823       3.43385945       0.80814766
C        2.31204370       1.69329028      12.38679020      -0.15703201       1.20330539      -0.11902226      -7.33913651       1.98955324      -2.20460788      -0.53790595
C        2.31720748      -2.65102338      12.35558994      -0.33357418      -0.78071086      -0.06543847      -7.34445524       3.14665697       2.42319448      -1.28459108