72
Lattice="3.73972251 -6.47739002 0.0 3.73972251 6.47739002 0.0 0.0 0.0 13.55673629" Properties=species:S:1:pos:R:3:energies:R:1:forces:R:3 virial="-52.19425634320792 -1.7902606530774028 1.0785041542489338 -1.7902606530774028 -54.34864107265846 0.23658943927722223 1.0785041542489338 0.23658943927722223 5.523593140712213" config_type=Graphite energy=-532.1301115977532 free_energy=-532.1301115977532 stress="-0.09934562815338827 -1.962476763935877e-05 -2.766198080148391e-10 -1.962476763935877e-05 -0.0993775357676416 -1.7117268147078106e-08 -2.766198080148391e-10 -1.7117268147078106e-08 2.2884648712790934e-08" pbc="T T T"
C        1.03510954      -1.73481626       1.44705584      -7.39066018      -0.01048082      -0.00426636       0.00227989
C        3.56975413      -5.20466055       5.27554738      -7.39078779       0.00442159      -0.01082662       0.00166129
C        1.03504035       1.14395038       1.44712057      -7.39068127       0.00380911       0.01400909      -0.00022976
C        6.06291123       1.99236043       5.27602474      -7.39073992      -0.00231999       0.00913154      -0.00252196
C        3.52824630      -6.05308842       1.44705783      -7.39067418      -0.00613890      -0.00557621       0.00156253
C        4.83629652       3.12118070      12.08388336      -7.39070291      -0.00089760       0.00204038       0.00249313
C        2.17873930      -3.46092090       8.31969421      -7.39067758       0.00225255       0.00116642      -0.00216235
C        3.42533431      -4.18059235       8.31922805      -7.39066432       0.00246805      -0.00687294       0.00131143
C        3.58969640       3.84085180      12.08409790      -7.39064510       0.00165931       0.00534585      -0.00055950
C        4.81629944       1.27272160       5.27619456      -7.39076461       0.00855216      -0.01111097       0.00142381
C        6.02132638       1.14399875       1.44718117      -7.39063025       0.00984412       0.00474141       0.00061148
C        3.56982801       1.99232929       5.27584665      -7.39074072      -0.01024961       0.01542268      -0.00086542
C        4.77477603       0.42428381       1.44726364      -7.39079667       0.00813617       0.00633280       0.00083782
C        3.58973996       0.96206489      12.08341393      -7.39061199      -0.00591418       0.00240681       0.00307101
C        4.67196005       0.85735661       8.31922152      -7.39074440      -0.00693192      -0.00530411      -0.00060843
C        4.67189601       2.29672760       8.31929053      -7.39071139       0.00279762       0.00720365       0.00098442
C        2.34314045       1.68179934      12.08383057      -7.39059496       0.00081358      -0.01162999      -0.00121917
C        2.34317419      -2.63648122      12.08389946      -7.39072565      -0.00576198      -0.00349567      -0.00305097
C        3.58964902      -3.35625081      12.08358030      -7.39076115       0.01264098       0.00280598       0.00236828
C        4.83627609       1.68181315      12.08393677      -7.39067348       0.00296612      -0.01185067      -0.00365841
C        5.91845970       0.13762930       8.31920595      -7.39068187       0.01018442       0.00191764      -0.00044431
C        6.06293746      -0.88648227       5.27552323      -7.39067352       0.00193438       0.00764234       0.00074333
C        3.52822078       5.46225028       1.44740549      -7.39058994       0.00020732       0.00275472      -0.00272616
C        4.81635604      -0.16676253       5.27651775      -7.39063201      -0.00296242      -0.00019969      -0.00184793
C        6.02129334      -1.73484935       1.44755202      -7.39074235       0.01709217       0.00433223       0.00101053
C        4.67191425      -3.46095320       8.31880419      -7.39065684      -0.00355208       0.00666884      -0.00037059
C        4.83629918      -1.19705209      12.08363832      -7.39071365      -0.00242196      -0.01547107       0.00181643
C        3.58969094      -0.47741215      12.08340841      -7.39076136       0.00640889       0.01131330      -0.00050417
C        4.67187709      -2.02147549       8.31865964      -7.39065905       0.00562503      -0.00753097       0.00169305
C        4.81637460      -3.04560845       5.27553605      -7.39066447       0.00054417       0.00159394       0.00136002
C        2.28166673       3.30313487       1.44764600      -7.39077374      -0.01310872       0.00007768      -0.00093264
C        3.56984341      -2.32590180       5.27609790      -7.39068422      -0.00821607       0.00007277      -0.00027336
C        4.77477083      -3.89390774       1.44743823      -7.39061436      -0.00142040      -0.00949085       0.00100290
C        5.91851601      -1.30178714       8.31889215      -7.39069582      -0.00784099       0.00246300      -0.00000976
C        3.42537881       0.13761627       8.31904699      -7.39066708      -0.00289638       0.00053418       0.00114540
C        3.56978064      -0.88650181       5.27678933      -7.39066171       0.00554548       0.00614765      -0.00078885
C        4.77487439      -1.01508156       1.44741778      -7.39077543      -0.01536089      -0.00720672      -0.00181901
C        3.42529497       3.01652001       8.31900737      -7.39071137       0.00438081      -0.00884668       0.00038859
C        4.83627769      -2.63658722      12.08390640      -7.39060882      -0.00025060       0.00868136      -0.00230882
C        2.17876546       2.29675261       8.31889659      -7.39071005      -0.00075176       0.00211910      -0.00006728
C        2.32322460       1.27272615       5.27608357      -7.39073136       0.00015568      -0.01331568       0.00160701
C        3.52825925       1.14404820       1.44736867      -7.39076114      -0.01320404      -0.00497355      -0.00102304
C        4.81633745      -4.48505997       5.27583536      -7.39074127       0.00340290       0.01406454      -0.00209034
C        2.34315540       3.12112662      12.08403286      -7.39071449      -0.00479358       0.00156337       0.00020369
C        2.28163220       0.42436345       1.44708158      -7.39065384      -0.00131888      -0.00970297       0.00015962
C        2.17880384       0.85732093       8.31911541      -7.39070885      -0.00086062       0.00209771      -0.00059507
C        3.58973826      -4.79561703      12.08357704      -7.39067090      -0.01167512      -0.01511457       0.00064086
C        0.93222579       0.13764383       8.31938608      -7.39070149      -0.00285815      -0.00282138       0.00071389
C        1.07660694      -0.88647443       5.27553218      -7.39066619       0.01079693       0.01014417       0.00193266
C        2.28160134      -1.01509331       1.44694876      -7.39066708       0.00914939       0.00093674      -0.00067460
C        7.30953937      -0.16669215       5.27528148      -7.39066609      -0.00804038      -0.00833108       0.00042366
C        1.09650234       0.96194780      12.08389303      -7.39065137       0.01286497       0.01564064       0.00076150
C        3.52814783       2.58339245       1.44751749      -7.39079832       0.01381570       0.00318100       0.00075408
C        6.06297387      -2.32584133       5.27518946      -7.39073871      -0.00420078      -0.00482746      -0.00005469
C        4.77476484       3.30307307       1.44744296      -7.39063646       0.00602330       0.01332563      -0.00073025
C        2.32323005      -0.16670910       5.27651118      -7.39060996      -0.00369122      -0.00700707      -0.00246695
C        3.52823584      -1.73480825       1.44708015      -7.39061833      -0.00452325       0.00125423       0.00269003
C        2.34316460      -1.19704008      12.08371989      -7.39081631      -0.00058890      -0.01057393       0.00239158
C        3.42532439      -1.30182227       8.31913412      -7.39072604       0.00238364       0.00576228      -0.00077611
C        1.09660302      -0.47744188      12.08427326      -7.39079504      -0.00975610       0.01254565      -0.00342583
C        2.17875059      -2.02148724       8.31966963      -7.39069918      -0.00221799      -0.00403783       0.00012036
C        2.32320315      -3.04558836       5.27572582      -7.39068185       0.00533494      -0.00020171       0.00175779
C        3.52815557      -3.17422003       1.44756032      -7.39074835       0.00980725       0.00386029      -0.00209681
C        4.81641858       4.15154889       5.27541178      -7.39071065      -0.01166224      -0.00133290      -0.00144945
C        2.28167845      -3.89388033       1.44754151      -7.39070542      -0.01232862      -0.01358916      -0.00067661
C        3.58968107       5.28037186      12.08416307      -7.39071755       0.00452221      -0.02079226       0.00186642
C        0.93216069      -1.30179701       8.31960329      -7.39070352       0.00551254       0.00234654      -0.00115719
C        6.08285754      -0.47746295      12.08404530      -7.39078755      -0.00033654       0.01532519      -0.00216166
C        3.42533861       4.45589896       8.31912996      -7.39077134      -0.00253614       0.00120552       0.00033801
C        3.56976102       3.43186636       5.27520157      -7.39063205       0.01065447      -0.00706645       0.00144939
C        3.42538012      -5.62004051       8.31934432      -7.39064135      -0.00515862       0.00192903      -0.00050407
C        6.08285734       0.96196926      12.08380015      -7.39057344       0.00052051       0.01125963       0.00127562
